                         Program Version 4.2.1 -  RELEASE  -
|  1> ! B3LYP OPT STO-3G
|  2> %pal
|  3> 	nprocs 28
|  4> end
|  5> * xyz 0 1
|  6>   C     -3.452440    0.712200    0.112300
|  7>   C     -2.854410    2.067000   -0.087770
|  8>   C     -2.180790    2.294020   -1.303530
|  9>   C     -0.978290    2.991150   -1.337050
| 10>   C     -0.394940    3.491070   -0.156240
| 11>   C      1.085330    3.355000   -0.004690
| 12>   C      1.935590    3.128250   -1.108620
| 13>   C      2.967690    2.195930   -1.036350
| 14>   C      3.201690    1.456150    0.144260
| 15>   C      2.625670    1.998840    1.311420
| 16>   C      1.586750    2.919730    1.238160
| 17>   C     -1.263000    3.595630    0.953140
| 18>   C     -2.468100    2.896110    0.987490
| 19>   C     -3.146900    0.051140    1.317720
| 20>   C     -2.852670   -1.307900    1.334290
| 21>   C     -2.850710   -2.064690    0.146350
| 22>   C      2.376020   -2.603670   -0.071370
| 23>   C      2.794420   -2.071370    1.166140
| 24>   C      3.369220   -0.807520    1.249940
| 25>   C      3.524920   -0.003220    0.100850
| 26>   C      3.484330   -0.703720   -1.123830
| 27>   C      2.936100   -1.979970   -1.207000
| 28>   C     -3.530490   -1.484270   -0.947070
| 29>   C     -3.824850   -0.121940   -0.964160
| 30>   H     -2.470040    1.740800   -2.191530
| 31>   H     -0.396430    2.946550   -2.251890
| 32>   H      1.699310    3.559720   -2.077720
| 33>   H      3.484470    1.937480   -1.956170
| 34>   H      2.836720    1.561420    2.281440
| 35>   H      1.036660    3.132860    2.149380
| 36>   H     -0.933730    4.101650    1.857050
| 37>   H     -3.032730    2.880270    1.916480
| 38>   H     -2.915890    0.629970    2.206500
| 39>   H     -2.408990   -1.717030    2.236330
| 40>   H      2.505840   -2.555680    2.093910
| 41>   H      3.522750   -0.388580    2.239500
| 42>   H      3.717610   -0.193820   -2.053560
| 43>   H      2.793000   -2.407790   -2.194860
| 44>   H     -3.697240   -2.061540   -1.853050
| 45>   H     -4.208860    0.314830   -1.882820
| 46>   H     -2.497262   -3.103059    0.122632
| 47>   H      1.816568   -3.544827   -0.140480
| 48>
| 49> **                         ****END OF INPUT****
 Total Charge           Charge          ....    0
 Multiplicity           Mult            ....    1
 Number of Electrons    NEL             ....  162
FINAL SINGLE POINT ENERGY      -913.364210971131
FINAL SINGLE POINT ENERGY      -913.379056598156
FINAL SINGLE POINT ENERGY      -913.385412239756
FINAL SINGLE POINT ENERGY      -913.389614248133
FINAL SINGLE POINT ENERGY      -913.392429994204
FINAL SINGLE POINT ENERGY      -913.394492345553
FINAL SINGLE POINT ENERGY      -913.396318704136
FINAL SINGLE POINT ENERGY      -913.398025158586
FINAL SINGLE POINT ENERGY      -913.399692221023
FINAL SINGLE POINT ENERGY      -913.401335655144
FINAL SINGLE POINT ENERGY      -913.499815368091
FINAL SINGLE POINT ENERGY      -913.500837744514
FINAL SINGLE POINT ENERGY      -913.501845215460
FINAL SINGLE POINT ENERGY      -913.502826570842
FINAL SINGLE POINT ENERGY      -913.503759796617
FINAL SINGLE POINT ENERGY      -913.504583914334
FINAL SINGLE POINT ENERGY      -913.504940185709
FINAL SINGLE POINT ENERGY      -913.505002696669
FINAL SINGLE POINT ENERGY      -913.505028212660
                    ***********************HURRAY********************

CARTESIAN COORDINATES (ANGSTROEM)
---------------------------------
  C     -5.045782    1.153219   -0.045303
  C     -3.540870    1.001759   -0.023107
  C     -2.829193    0.570182   -1.174023
  C     -1.432325    0.429864   -1.154597
  C     -0.681589    0.714465    0.017317
  C      0.821689    0.563464    0.040235
  C      1.599590    0.772795   -1.130130
  C      2.996275    0.632579   -1.108224
  C      3.680889    0.276101    0.084393
  C      2.903394    0.066868    1.254358
  C      1.506527    0.207495    1.232772
  C     -1.393641    1.145841    1.168614
  C     -2.790381    1.286443    1.148872
  C     -5.820720    0.928293    1.123793
  C     -7.220493    1.067922    1.100276
  C     -7.877793    1.438059   -0.090191
  C      8.017981   -0.159849    0.143905
  C      7.333742    0.283956    1.293322
  C      5.933866    0.423577    1.275829
  C      5.185830    0.124627    0.105718
  C      5.890714   -0.320257   -1.044716
  C      7.290206   -0.461915   -1.024676
  C     -7.123145    1.666113   -1.258537
  C     -5.723675    1.524116   -1.237474
  H     -3.380547    0.321108   -2.090155
  H     -0.917112    0.072933   -2.055911
  H      1.105330    1.070550   -2.064060
  H      3.569352    0.822191   -2.025288
  H      3.397471   -0.230902    2.188412
  H      0.934057    0.017991    2.150226
  H     -0.842328    1.394751    2.084788
  H     -3.306138    1.643288    2.049931
  H     -5.323345    0.624952    2.054248
  H     -7.801453    0.883020    2.014189
  H      7.893788    0.526631    2.206766
  H      5.415627    0.784650    2.173718
  H      5.333985   -0.572387   -1.956689
  H      7.814833   -0.813458   -1.923629
  H     -7.626823    1.959831   -2.189630
  H     -5.146145    1.717912   -2.150810
  H     -8.970634    1.548002   -0.107645
  H      9.110885   -0.269606    0.158636

 Multiplicity           Mult            ....    1
 Number of Electrons    NEL             ....  162
 Basis Dimension        Dim             ....  138

ORBITAL ENERGIES
----------------

  NO   OCC          E(Eh)            E(eV)
   0   2.0000     -10.017624      -272.5934
   1   2.0000     -10.017401      -272.5873
   2   2.0000     -10.017397      -272.5872
   3   2.0000     -10.016637      -272.5666
   4   2.0000     -10.016412      -272.5604
   5   2.0000     -10.016407      -272.5603
   6   2.0000     -10.003848      -272.2185
   7   2.0000     -10.003837      -272.2182
   8   2.0000     -10.003506      -272.2092
   9   2.0000     -10.003490      -272.2088
  10   2.0000     -10.003185      -272.2005
  11   2.0000     -10.003163      -272.1999
  12   2.0000     -10.003160      -272.1998
  13   2.0000     -10.003138      -272.1992
  14   2.0000     -10.002849      -272.1914
  15   2.0000     -10.002841      -272.1911
  16   2.0000     -10.002538      -272.1829
  17   2.0000     -10.002511      -272.1822
  18   2.0000     -10.002391      -272.1789
  19   2.0000     -10.002362      -272.1781
  20   2.0000     -10.002173      -272.1730
  21   2.0000     -10.002152      -272.1724
  22   2.0000     -10.002031      -272.1691
  23   2.0000     -10.002016      -272.1687
  24   2.0000      -0.816988       -22.2314
  25   2.0000      -0.809211       -22.0197
  26   2.0000      -0.797544       -21.7023
  27   2.0000      -0.785685       -21.3796
  28   2.0000      -0.737588       -20.0708
  29   2.0000      -0.712400       -19.3854
  30   2.0000      -0.701934       -19.1006
  31   2.0000      -0.697938       -18.9919
  32   2.0000      -0.693072       -18.8594
  33   2.0000      -0.689326       -18.7575
  34   2.0000      -0.681615       -18.5477
  35   2.0000      -0.650728       -17.7072
  36   2.0000      -0.584902       -15.9160
  37   2.0000      -0.578272       -15.7356
  38   2.0000      -0.564938       -15.3727
  39   2.0000      -0.557594       -15.1729
  40   2.0000      -0.547698       -14.9036
  41   2.0000      -0.533516       -14.5177
  42   2.0000      -0.532415       -14.4878
  43   2.0000      -0.519583       -14.1386
  44   2.0000      -0.486752       -13.2452
  45   2.0000      -0.476146       -12.9566
  46   2.0000      -0.454711       -12.3733
  47   2.0000      -0.433910       -11.8073
  48   2.0000      -0.431773       -11.7491
  49   2.0000      -0.416816       -11.3421
  50   2.0000      -0.400624       -10.9015
  51   2.0000      -0.400188       -10.8897
  52   2.0000      -0.399367       -10.8673
  53   2.0000      -0.391452       -10.6519
  54   2.0000      -0.381739       -10.3876
  55   2.0000      -0.380348       -10.3498
  56   2.0000      -0.375868       -10.2279
  57   2.0000      -0.370530       -10.0826
  58   2.0000      -0.369445       -10.0531
  59   2.0000      -0.364261        -9.9120
  60   2.0000      -0.364203        -9.9105
  61   2.0000      -0.334484        -9.1018
  62   2.0000      -0.322527        -8.7764
  63   2.0000      -0.319733        -8.7004
  64   2.0000      -0.308749        -8.4015
  65   2.0000      -0.307758        -8.3745
  66   2.0000      -0.305552        -8.3145
  67   2.0000      -0.296591        -8.0707
  68   2.0000      -0.292250        -7.9525
  69   2.0000      -0.286516        -7.7965
  70   2.0000      -0.284170        -7.7327
  71   2.0000      -0.277599        -7.5539
  72   2.0000      -0.277136        -7.5413
  73   2.0000      -0.230287        -6.2664
  74   2.0000      -0.203709        -5.5432
  75   2.0000      -0.192130        -5.2281
  76   2.0000      -0.191346        -5.2068
  77   2.0000      -0.190511        -5.1841
  78   2.0000      -0.190334        -5.1792
  79   2.0000      -0.172224        -4.6864
  80   2.0000      -0.144676        -3.9368
  81   0.0000       0.037049         1.0082
  82   0.0000       0.069746         1.8979
  83   0.0000       0.090811         2.4711
  84   0.0000       0.091578         2.4920
  85   0.0000       0.092791         2.5250

MULLIKEN ATOMIC CHARGES
-----------------------
   0 C :   -0.003628
   1 C :   -0.003283
   2 C :   -0.078550
   3 C :   -0.078417
   4 C :   -0.003576
   5 C :   -0.003635
   6 C :   -0.078389
   7 C :   -0.078470
   8 C :   -0.003348
   9 C :   -0.078572
  10 C :   -0.078307
  11 C :   -0.078365
  12 C :   -0.078584
  13 C :   -0.077849
  14 C :   -0.079005
  15 C :   -0.078227
  16 C :   -0.078211
  17 C :   -0.079040
  18 C :   -0.077846
  19 C :   -0.003561
  20 C :   -0.077835
  21 C :   -0.079076
  22 C :   -0.079072
  23 C :   -0.077756
  24 H :    0.079845
  25 H :    0.079759
  26 H :    0.079757
  27 H :    0.079808
  28 H :    0.079862
  29 H :    0.079713
  30 H :    0.079737
  31 H :    0.079862
  32 H :    0.079373
  33 H :    0.079428
  34 H :    0.079430
  35 H :    0.079365
  36 H :    0.079360
  37 H :    0.079447
  38 H :    0.079437
  39 H :    0.079325
  40 H :    0.079550
  41 H :    0.079547
Sum of atomic charges:   -0.0000000

LOEWDIN ATOMIC CHARGES
----------------------
   0 C :    0.002727
   1 C :    0.003104
   2 C :   -0.045967
   3 C :   -0.045802
   4 C :    0.002755
   5 C :    0.002706
   6 C :   -0.045768
   7 C :   -0.045903
   8 C :    0.003046
   9 C :   -0.045950
  10 C :   -0.045744
  11 C :   -0.045783
  12 C :   -0.045961
  13 C :   -0.045234
  14 C :   -0.042987
  15 C :   -0.042148
  16 C :   -0.042135
  17 C :   -0.043013
  18 C :   -0.045234
  19 C :    0.002783
  20 C :   -0.045252
  21 C :   -0.043040
  22 C :   -0.043031
  23 C :   -0.045186
  24 H :    0.044084
  25 H :    0.044008
  26 H :    0.044005
  27 H :    0.044059
  28 H :    0.044083
  29 H :    0.043987
  30 H :    0.044004
  31 H :    0.044081
  32 H :    0.043646
  33 H :    0.043318
  34 H :    0.043319
  35 H :    0.043640
  36 H :    0.043657
  37 H :    0.043332
  38 H :    0.043323
  39 H :    0.043626
  40 H :    0.043423
  41 H :    0.043421

  Mayer bond orders larger than 0.100000
B(  0-C ,  1-C ) :   1.0334 B(  0-C , 13-C ) :   1.3827 B(  0-C , 15-C ) :   0.1092
B(  0-C , 23-C ) :   1.3823 B(  1-C ,  2-C ) :   1.3756 B(  1-C ,  4-C ) :   0.1026
B(  1-C , 12-C ) :   1.3752 B(  2-C ,  3-C ) :   1.4562 B(  2-C , 11-C ) :   0.1035
B(  2-C , 24-H ) :   0.9600 B(  3-C ,  4-C ) :   1.3744 B(  3-C , 12-C ) :   0.1035
B(  3-C , 25-H ) :   0.9601 B(  4-C ,  5-C ) :   1.0367 B(  4-C , 11-C ) :   1.3739
B(  5-C ,  6-C ) :   1.3737 B(  5-C ,  8-C ) :   0.1026 B(  5-C , 10-C ) :   1.3746
B(  6-C ,  7-C ) :   1.4569 B(  6-C ,  9-C ) :   0.1035 B(  6-C , 26-H ) :   0.9601
B(  7-C ,  8-C ) :   1.3750 B(  7-C , 10-C ) :   0.1035 B(  7-C , 27-H ) :   0.9600
B(  8-C ,  9-C ) :   1.3758 B(  8-C , 19-C ) :   1.0334 B(  9-C , 10-C ) :   1.4560
B(  9-C , 28-H ) :   0.9600 B( 10-C , 29-H ) :   0.9600 B( 11-C , 12-C ) :   1.4567
B( 11-C , 30-H ) :   0.9600 B( 12-C , 31-H ) :   0.9601 B( 13-C , 14-C ) :   1.4427
B( 13-C , 22-C ) :   0.1102 B( 13-C , 32-H ) :   0.9604 B( 14-C , 15-C ) :   1.4239
B( 14-C , 23-C ) :   0.1102 B( 14-C , 33-H ) :   0.9631 B( 15-C , 22-C ) :   1.4235
B( 15-C , 40-H ) :   0.9635 B( 16-C , 17-C ) :   1.4239 B( 16-C , 19-C ) :   0.1092
B( 16-C , 21-C ) :   1.4235 B( 16-C , 41-H ) :   0.9635 B( 17-C , 18-C ) :   1.4427
B( 17-C , 20-C ) :   0.1101 B( 17-C , 34-H ) :   0.9632 B( 18-C , 19-C ) :   1.3826
B( 18-C , 21-C ) :   0.1102 B( 18-C , 35-H ) :   0.9604 B( 19-C , 20-C ) :   1.3823
B( 20-C , 21-C ) :   1.4431 B( 20-C , 36-H ) :   0.9604 B( 21-C , 37-H ) :   0.9631
B( 22-C , 23-C ) :   1.4431 B( 22-C , 38-H ) :   0.9631 B( 23-C , 39-H ) :   0.9604

FINAL SINGLE POINT ENERGY      -913.505030306284

DIPOLE MOMENT
-------------
                                X             Y             Z
Electronic contribution:     -0.00017       0.00023       0.00586
Nuclear contribution   :     -0.00002      -0.00029      -0.00593
                        -----------------------------------------
Total Dipole Moment    :     -0.00018      -0.00006      -0.00008
                        -----------------------------------------
Magnitude (a.u.)       :      0.00021
Magnitude (Debye)      :      0.00053

Rotational constants in cm-1:     0.046730     0.002157     0.002075
Rotational constants in MHz :  1400.925907    64.658905    62.214340

                             ****ORCA TERMINATED NORMALLY****
TOTAL RUN TIME: 0 days 0 hours 17 minutes 19 seconds 475 msec
