 Gaussian 09, Revision E.01,
 Gaussian 09:  EM64L-G09RevE.01 30-Nov-2015

 ---------------------
 #n B3LYP/6-31G(d) opt
 ---------------------

 ---------------------
 geometry optimization
 ---------------------
 Symbolic Z-matrix:
 Charge =  0 Multiplicity = 1

 SCF Done:  E(RB3LYP) =  -925.293072577     A.U. after   14 cycles
 SCF Done:  E(RB3LYP) =  -925.325996991     A.U. after   15 cycles
 SCF Done:  E(RB3LYP) =  -925.373725303     A.U. after   15 cycles
 SCF Done:  E(RB3LYP) =  -925.400320010     A.U. after   15 cycles
 SCF Done:  E(RB3LYP) =  -925.413669331     A.U. after   14 cycles
 SCF Done:  E(RB3LYP) =  -925.418663427     A.U. after   13 cycles
 SCF Done:  E(RB3LYP) =  -925.420678531     A.U. after   14 cycles
 SCF Done:  E(RB3LYP) =  -925.421285650     A.U. after   13 cycles
 SCF Done:  E(RB3LYP) =  -925.421443285     A.U. after   11 cycles
 SCF Done:  E(RB3LYP) =  -925.421454741     A.U. after   11 cycles
 SCF Done:  E(RB3LYP) =  -925.421455178     A.U. after    7 cycles
 SCF Done:  E(RB3LYP) =  -925.421455219     A.U. after    7 cycles
 Optimization completed.
    -- Stationary point found.

                         Standard orientation:
 ---------------------------------------------------------------------
 Center     Atomic      Atomic             Coordinates (Angstroms)
 Number     Number       Type             X           Y           Z
 ---------------------------------------------------------------------
      1          6           0       -7.896017   -0.000018    0.000028
      2          6           0        7.895889   -0.000033    0.000051
      3          6           0        7.191928   -0.957724    0.732421
      4          6           0        5.797937   -0.957156    0.732542
      5          6           0        5.074917    0.000011   -0.000003
      6          6           0        5.797992    0.957148   -0.732519
      7          6           0        7.191990    0.957671   -0.732348
      8          6           0       -7.192043    1.205588   -0.000460
      9          6           0       -5.798085    1.205204   -0.001242
     10          6           0       -5.074806   -0.000010    0.000015
     11          6           0       -3.590685    0.000006    0.000009
     12          6           0       -2.861669    0.957641    0.725017
     13          6           0       -1.470449    0.957927    0.724897
     14          6           0       -0.741299    0.000005   -0.000020
     15          6           0        0.741417    0.000003   -0.000030
     16          6           0        1.470533    1.201195    0.007898
     17          6           0        2.861768    1.201100    0.008174
     18          6           0        3.590660    0.000027   -0.000005
     19          6           0        2.861782   -1.201063   -0.008235
     20          6           0        1.470552   -1.201177   -0.007972
     21          6           0       -1.470465   -0.957903   -0.724953
     22          6           0       -2.861682   -0.957617   -0.725042
     23          6           0       -5.798073   -1.205219    0.001275
     24          6           0       -7.192035   -1.205613    0.000509
     25          1           0        7.729159   -1.702970    1.313325
     26          1           0        5.260906   -1.690059    1.328253
     27          1           0        5.261021    1.690075   -1.328253
     28          1           0        7.729276    1.702907   -1.313217
     29          1           0       -7.729295    2.150438   -0.009589
     30          1           0       -5.261235    2.149386   -0.029842
     31          1           0       -3.392649    1.690437    1.326222
     32          1           0       -0.939767    1.690845    1.326208
     33          1           0        0.939552    2.149037   -0.004035
     34          1           0        3.393091    2.148532    0.032318
     35          1           0        3.393124   -2.148483   -0.032407
     36          1           0        0.939586   -2.149029    0.003944
     37          1           0       -0.939790   -1.690790   -1.326307
     38          1           0       -3.392694   -1.690372   -1.326269
     39          1           0       -5.261228   -2.149404    0.029858
     40          1           0       -7.729267   -2.150472    0.009645
     41          1           0       -8.982657   -0.000018    0.000032
     42          1           0        8.982532   -0.000038    0.000069
 ---------------------------------------------------------------------

 The electronic state is 1-A.
 Alpha  occ. eigenvalues --  -10.19899 -10.19872 -10.19869 -10.19863 -10.19843
 Alpha  occ. eigenvalues --  -10.19834 -10.19001 -10.19000 -10.18999 -10.18998
 Alpha  occ. eigenvalues --  -10.18992 -10.18990 -10.18982 -10.18981 -10.18943
 Alpha  occ. eigenvalues --  -10.18942 -10.18934 -10.18933 -10.18904 -10.18900
 Alpha  occ. eigenvalues --  -10.18865 -10.18864 -10.18862 -10.18861  -0.87168
 Alpha  occ. eigenvalues --   -0.86320  -0.85065  -0.83834  -0.79154  -0.76474
 Alpha  occ. eigenvalues --   -0.75043  -0.74632  -0.74156  -0.73825  -0.73272
 Alpha  occ. eigenvalues --   -0.70128  -0.63613  -0.62514  -0.61178  -0.60621
 Alpha  occ. eigenvalues --   -0.59526  -0.58158  -0.58053  -0.56655  -0.53353
 Alpha  occ. eigenvalues --   -0.52344  -0.50337  -0.47706  -0.47547  -0.47065
 Alpha  occ. eigenvalues --   -0.45375  -0.44579  -0.44389  -0.43723  -0.43612
 Alpha  occ. eigenvalues --   -0.42645  -0.42488  -0.42126  -0.41660  -0.41647
 Alpha  occ. eigenvalues --   -0.41242  -0.38542  -0.37937  -0.37080  -0.36144
 Alpha  occ. eigenvalues --   -0.35779  -0.35510  -0.34959  -0.34428  -0.33984
 Alpha  occ. eigenvalues --   -0.33579  -0.33236  -0.32764  -0.28744  -0.26284
 Alpha  occ. eigenvalues --   -0.25149  -0.25072  -0.24939  -0.24936  -0.23347
 Alpha  occ. eigenvalues --   -0.20702
 Alpha virt. eigenvalues --   -0.04368  -0.01416  -0.00567  -0.00240   0.00065
 Alpha virt. eigenvalues --    0.00198   0.01979   0.04984   0.09685   0.09716
 Alpha virt. eigenvalues --    0.10641   0.11276   0.12035   0.12852   0.13533

 Mulliken charges:
               1
     1  C   -0.126764
     2  C   -0.126760
     3  C   -0.133702
     4  C   -0.173588
     5  C    0.088425
     6  C   -0.173590
     7  C   -0.133701
     8  C   -0.133619
     9  C   -0.173735
    10  C    0.089315
    11  C    0.094582
    12  C   -0.181668
    13  C   -0.181396
    14  C    0.094908
    15  C    0.094256
    16  C   -0.180622
    17  C   -0.180731
    18  C    0.093187
    19  C   -0.180730
    20  C   -0.180621
    21  C   -0.181396
    22  C   -0.181666
    23  C   -0.173738
    24  C   -0.133618
    25  H    0.130494
    26  H    0.132484
    27  H    0.132482
    28  H    0.130494
    29  H    0.130434
    30  H    0.132002
    31  H    0.133570
    32  H    0.133590
    33  H    0.132934
    34  H    0.133318
    35  H    0.133320
    36  H    0.132934
    37  H    0.133591
    38  H    0.133571
    39  H    0.132002
    40  H    0.130434
    41  H    0.129679
    42  H    0.129640
 Sum of Mulliken charges =  -0.00000

 Dipole moment (field-independent basis, Debye):
    X=              0.0044    Y=              0.0000    Z=             -0.0000  Tot=              0.0044
 Quadrupole moment (field-independent basis, Debye-Ang):
   XX=           -119.2840   YY=           -125.9754   ZZ=           -142.5277
   XY=              0.0001   XZ=              0.0001   YZ=             -0.1966

 Normal termination of Gaussian 09 at Thu Apr 18 15:03:19 2019.
