                         Program Version 4.2.1 -  RELEASE  -
|  1> ! B3LYP OPT 6-31G*
|  2> %pal
|  3> 	nprocs 28
|  4> end
|  5> %geom
|  6> 	coordsys redundant_old
|  7> end
|  8> * xyz 0 1
|  9>   C     -3.452440    0.712200    0.112300
| 10>   C     -2.854410    2.067000   -0.087770
| 11>   C     -2.180790    2.294020   -1.303530
| 12>   C     -0.978290    2.991150   -1.337050
| 13>   C     -0.394940    3.491070   -0.156240
| 14>   C      1.085330    3.355000   -0.004690
| 15>   C      1.935590    3.128250   -1.108620
| 16>   C      2.967690    2.195930   -1.036350
| 17>   C      3.201690    1.456150    0.144260
| 18>   C      2.625670    1.998840    1.311420
| 19>   C      1.586750    2.919730    1.238160
| 20>   C     -1.263000    3.595630    0.953140
| 21>   C     -2.468100    2.896110    0.987490
| 22>   C     -3.146900    0.051140    1.317720
| 23>   C     -2.852670   -1.307900    1.334290
| 24>   C     -2.850710   -2.064690    0.146350
| 25>   C     -1.750560   -3.060350   -0.028940
| 26>   C     -1.025270   -3.587410    1.061510
| 27>   C      0.359930   -3.723820    0.999750
| 28>   C      1.078790   -3.341450   -0.154950
| 29>   C      0.306000   -3.214710   -1.327120
| 30>   C     -1.075390   -3.072660   -1.265180
| 31>   C     -3.530490   -1.484270   -0.947070
| 32>   C     -3.824850   -0.121940   -0.964160
| 33>   H     -2.470040    1.740800   -2.191530
| 34>   H     -0.396430    2.946550   -2.251890
| 35>   H      1.699310    3.559720   -2.077720
| 36>   H      3.484470    1.937480   -1.956170
| 37>   H      2.836720    1.561420    2.281440
| 38>   H      1.036660    3.132860    2.149380
| 39>   H     -0.933730    4.101650    1.857050
| 40>   H     -3.032730    2.880270    1.916480
| 41>   H     -2.915890    0.629970    2.206500
| 42>   H     -2.408990   -1.717030    2.236330
| 43>   H     -1.518110   -3.748470    2.016950
| 44>   H      0.889060   -3.984550    1.912210
| 45>   H      0.786250   -3.012770   -2.278630
| 46>   H     -1.591470   -2.756600   -2.166300
| 47>   H     -3.697240   -2.061540   -1.853050
| 48>   H     -4.208860    0.314830   -1.882820
| 49>   H      3.919362    0.643328    0.181285
| 50>   H      2.163598   -3.325621   -0.177641
| 51>
| 52> **                         ****END OF INPUT****
 Total Charge           Charge          ....    0
 Multiplicity           Mult            ....    1
 Number of Electrons    NEL             ....  162
FINAL SINGLE POINT ENERGY      -924.677538296628
FINAL SINGLE POINT ENERGY      -924.697429326263
FINAL SINGLE POINT ENERGY      -924.714869276968
FINAL SINGLE POINT ENERGY      -924.730316584477
FINAL SINGLE POINT ENERGY      -924.744151261616
FINAL SINGLE POINT ENERGY      -924.756512573290
FINAL SINGLE POINT ENERGY      -924.767441721907
FINAL SINGLE POINT ENERGY      -924.776950863705
FINAL SINGLE POINT ENERGY      -924.784995037977
FINAL SINGLE POINT ENERGY      -924.791618714752
FINAL SINGLE POINT ENERGY      -924.796882193588
FINAL SINGLE POINT ENERGY      -924.800807913441
FINAL SINGLE POINT ENERGY      -924.803404630180
FINAL SINGLE POINT ENERGY      -924.804734056887
FINAL SINGLE POINT ENERGY      -924.804985075407
FINAL SINGLE POINT ENERGY      -924.804999993461
FINAL SINGLE POINT ENERGY      -924.805007286791
                    ***********************HURRAY********************

CARTESIAN COORDINATES (ANGSTROEM)
---------------------------------
  C     -0.891738   -0.415969   -0.014058
  C     -0.291972    0.940425    0.004310
  C      0.344059    1.473311   -1.130704
  C      0.906159    2.746428   -1.112604
  C      0.859814    3.548933    0.040891
  C      1.458388    4.907577    0.058937
  C      1.399124    5.739185   -1.073673
  C      1.960639    7.015660   -1.058048
  C      2.593896    7.492136    0.092330
  C      2.660620    6.678167    1.225779
  C      2.100376    5.401125    1.208594
  C      0.224032    3.016152    1.175815
  C     -0.338030    1.743008    1.157985
  C     -0.853172   -1.246171    1.120120
  C     -1.415380   -2.519267    1.103460
  C     -2.043775   -3.024291   -0.048180
  C     -2.642386   -4.382962   -0.066945
  C     -3.291654   -4.904281    1.066261
  C     -3.851428   -6.181513    1.048920
  C     -3.777110   -6.967788   -0.103451
  C     -3.137038   -6.463363   -1.237999
  C     -2.575953   -5.186767   -1.219127
  C     -2.083087   -2.193973   -1.182017
  C     -1.520810   -0.920884   -1.165620
  H      0.431361    0.867808   -2.028933
  H      1.420259    3.112091   -1.997299
  H      0.886091    5.389613   -1.965434
  H      1.894441    7.642646   -1.943934
  H      3.158216    7.034355    2.124360
  H      2.183733    4.767383    2.087513
  H      0.137174    3.621670    2.074073
  H     -0.852356    1.377720    2.042692
  H     -0.344230   -0.902518    2.016494
  H     -1.333863   -3.146579    1.987124
  H     -3.380382   -4.292007    1.959757
  H     -4.354330   -6.559623    1.935517
  H     -3.065027   -7.068808   -2.138304
  H     -2.057251   -4.815618   -2.098848
  H     -2.591768   -2.537999   -2.078401
  H     -1.602666   -0.293727   -2.049366
  H      3.030725    8.486987    0.105496
  H     -4.213130   -7.962958   -0.116889

 Multiplicity           Mult            ....    1
 Number of Electrons    NEL             ....  162
 Basis Dimension        Dim             ....  372

ORBITAL ENERGIES
----------------

  NO   OCC          E(Eh)            E(eV)
   0   2.0000     -10.190339      -277.2932
   1   2.0000     -10.190137      -277.2877
   2   2.0000     -10.190114      -277.2871
   3   2.0000     -10.190104      -277.2868
   4   2.0000     -10.189905      -277.2814
   5   2.0000     -10.189899      -277.2812
   6   2.0000     -10.180389      -277.0225
   7   2.0000     -10.180385      -277.0224
   8   2.0000     -10.180243      -277.0185
   9   2.0000     -10.180243      -277.0185
  10   2.0000     -10.180241      -277.0184
  11   2.0000     -10.180219      -277.0178
  12   2.0000     -10.180205      -277.0175
  13   2.0000     -10.180181      -277.0168
  14   2.0000     -10.179756      -277.0052
  15   2.0000     -10.179735      -277.0047
  16   2.0000     -10.179731      -277.0046
  17   2.0000     -10.179705      -277.0038
  18   2.0000     -10.179462      -276.9972
  19   2.0000     -10.179449      -276.9969
  20   2.0000     -10.179092      -276.9872
  21   2.0000     -10.179079      -276.9868
  22   2.0000     -10.178997      -276.9846
  23   2.0000     -10.178975      -276.9840
  24   2.0000      -0.867764       -23.6131
  25   2.0000      -0.859299       -23.3827
  26   2.0000      -0.846745       -23.0411
  27   2.0000      -0.834423       -22.7058
  28   2.0000      -0.787698       -21.4343
  29   2.0000      -0.760919       -20.7057
  30   2.0000      -0.746713       -20.3191
  31   2.0000      -0.742582       -20.2067
  32   2.0000      -0.737763       -20.0756
  33   2.0000      -0.734391       -19.9838
  34   2.0000      -0.728904       -19.8345
  35   2.0000      -0.697450       -18.9786
  36   2.0000      -0.632437       -17.2095
  37   2.0000      -0.621627       -16.9153
  38   2.0000      -0.608204       -16.5501
  39   2.0000      -0.602562       -16.3965
  40   2.0000      -0.591491       -16.0953
  41   2.0000      -0.577508       -15.7148
  42   2.0000      -0.576889       -15.6979
  43   2.0000      -0.562838       -15.3156
  44   2.0000      -0.529994       -14.4219
  45   2.0000      -0.519824       -14.1451
  46   2.0000      -0.499636       -13.5958
  47   2.0000      -0.473473       -12.8839
  48   2.0000      -0.472206       -12.8494
  49   2.0000      -0.467157       -12.7120
  50   2.0000      -0.449655       -12.2357
  51   2.0000      -0.442324       -12.0362
  52   2.0000      -0.440330       -11.9820
  53   2.0000      -0.432918       -11.7803
  54   2.0000      -0.432293       -11.7633
  55   2.0000      -0.423688       -11.5291
  56   2.0000      -0.421410       -11.4672
  57   2.0000      -0.417623       -11.3641
  58   2.0000      -0.412890       -11.2353
  59   2.0000      -0.412815       -11.2333
  60   2.0000      -0.409259       -11.1365
  61   2.0000      -0.381759       -10.3882
  62   2.0000      -0.371112       -10.0985
  63   2.0000      -0.369543       -10.0558
  64   2.0000      -0.359065        -9.7706
  65   2.0000      -0.354149        -9.6369
  66   2.0000      -0.352250        -9.5852
  67   2.0000      -0.344889        -9.3849
  68   2.0000      -0.341675        -9.2974
  69   2.0000      -0.336338        -9.1522
  70   2.0000      -0.331065        -9.0087
  71   2.0000      -0.329065        -8.9543
  72   2.0000      -0.324761        -8.8372
  73   2.0000      -0.285023        -7.7559
  74   2.0000      -0.259182        -7.0527
  75   2.0000      -0.248123        -6.7518
  76   2.0000      -0.247186        -6.7263
  77   2.0000      -0.245912        -6.6916
  78   2.0000      -0.245769        -6.6877
  79   2.0000      -0.229347        -6.2409
  80   2.0000      -0.203535        -5.5385
  81   0.0000      -0.041083        -1.1179
  82   0.0000      -0.011326        -0.3082
  83   0.0000      -0.002610        -0.0710
  84   0.0000       0.000778         0.0212
  85   0.0000       0.003818         0.1039

MULLIKEN ATOMIC CHARGES
-----------------------
   0 C :    0.094193
   1 C :    0.093899
   2 C :   -0.178605
   3 C :   -0.176150
   4 C :    0.092840
   5 C :    0.087313
   6 C :   -0.167623
   7 C :   -0.133305
   8 C :   -0.122457
   9 C :   -0.132170
  10 C :   -0.170429
  11 C :   -0.178629
  12 C :   -0.175934
  13 C :   -0.175660
  14 C :   -0.178829
  15 C :    0.093132
  16 C :    0.087017
  17 C :   -0.170219
  18 C :   -0.132558
  19 C :   -0.122292
  20 C :   -0.132994
  21 C :   -0.168002
  22 C :   -0.175835
  23 C :   -0.178766
  24 H :    0.130998
  25 H :    0.128759
  26 H :    0.127320
  27 H :    0.129524
  28 H :    0.127139
  29 H :    0.130065
  30 H :    0.131327
  31 H :    0.128383
  32 H :    0.128279
  33 H :    0.131449
  34 H :    0.129921
  35 H :    0.127406
  36 H :    0.129245
  37 H :    0.127457
  38 H :    0.128642
  39 H :    0.131114
  40 H :    0.127514
  41 H :    0.127519
Sum of atomic charges:    0.0000000

LOEWDIN ATOMIC CHARGES
----------------------
   0 C :   -0.015720
   1 C :   -0.015762
   2 C :   -0.125843
   3 C :   -0.125476
   4 C :   -0.015067
   5 C :   -0.014692
   6 C :   -0.127026
   7 C :   -0.128167
   8 C :   -0.130662
   9 C :   -0.127724
  10 C :   -0.127576
  11 C :   -0.125882
  12 C :   -0.125409
  13 C :   -0.125319
  14 C :   -0.125969
  15 C :   -0.015013
  16 C :   -0.014745
  17 C :   -0.127496
  18 C :   -0.127785
  19 C :   -0.130618
  20 C :   -0.128088
  21 C :   -0.127135
  22 C :   -0.125386
  23 C :   -0.125922
  24 H :    0.132938
  25 H :    0.132793
  26 H :    0.131782
  27 H :    0.131429
  28 H :    0.131073
  29 H :    0.132130
  30 H :    0.133099
  31 H :    0.132629
  32 H :    0.132596
  33 H :    0.133132
  34 H :    0.132090
  35 H :    0.131122
  36 H :    0.131360
  37 H :    0.131818
  38 H :    0.132759
  39 H :    0.132970
  40 H :    0.131378
  41 H :    0.131386

  Mayer bond orders larger than 0.100000
B(  0-C ,  1-C ) :   1.0176 B(  0-C , 13-C ) :   1.4010 B(  0-C , 23-C ) :   1.3999
B(  1-C ,  2-C ) :   1.3999 B(  1-C , 12-C ) :   1.4012 B(  2-C ,  3-C ) :   1.4293
B(  2-C , 24-H ) :   0.9197 B(  3-C ,  4-C ) :   1.4025 B(  3-C , 25-H ) :   0.9198
B(  4-C ,  5-C ) :   1.0139 B(  4-C , 11-C ) :   1.4015 B(  5-C ,  6-C ) :   1.4104
B(  5-C , 10-C ) :   1.4095 B(  6-C ,  7-C ) :   1.4417 B(  6-C , 26-H ) :   0.9202
B(  7-C ,  8-C ) :   1.4462 B(  7-C , 27-H ) :   0.9294 B(  8-C ,  9-C ) :   1.4480
B(  8-C , 40-H ) :   0.9297 B(  9-C , 10-C ) :   1.4417 B(  9-C , 28-H ) :   0.9298
B( 10-C , 29-H ) :   0.9201 B( 11-C , 12-C ) :   1.4293 B( 11-C , 30-H ) :   0.9197
B( 12-C , 31-H ) :   0.9197 B( 13-C , 14-C ) :   1.4291 B( 13-C , 32-H ) :   0.9198
B( 14-C , 15-C ) :   1.4013 B( 14-C , 33-H ) :   0.9197 B( 15-C , 16-C ) :   1.0139
B( 15-C , 22-C ) :   1.4024 B( 16-C , 17-C ) :   1.4096 B( 16-C , 21-C ) :   1.4105
B( 17-C , 18-C ) :   1.4419 B( 17-C , 34-H ) :   0.9201 B( 18-C , 19-C ) :   1.4479
B( 18-C , 35-H ) :   0.9297 B( 19-C , 20-C ) :   1.4461 B( 19-C , 41-H ) :   0.9298
B( 20-C , 21-C ) :   1.4417 B( 20-C , 36-H ) :   0.9295 B( 21-C , 37-H ) :   0.9201
B( 22-C , 23-C ) :   1.4291 B( 22-C , 38-H ) :   0.9199 B( 23-C , 39-H ) :   0.9197

FINAL SINGLE POINT ENERGY      -924.805008052503

DIPOLE MOMENT
-------------
                                X             Y             Z
Electronic contribution:     -0.00152      -0.00011       0.00316
Nuclear contribution   :      0.00160      -0.00064      -0.00231
                        -----------------------------------------
Total Dipole Moment    :      0.00009      -0.00075       0.00086
                        -----------------------------------------
Magnitude (a.u.)       :      0.00114
Magnitude (Debye)      :      0.00290

Rotational constants in cm-1:     0.047747     0.002204     0.002126
Rotational constants in MHz :  1431.428248    66.088251    63.734375

                             ****ORCA TERMINATED NORMALLY****
TOTAL RUN TIME: 0 days 0 hours 7 minutes 43 seconds 77 msec
