                         Program Version 4.2.1 -  RELEASE  -
|  1> ! B3LYP OPT STO-3G
|  2> %pal
|  3> 	nprocs 28
|  4> end
|  5> * xyz 0 1
|  6>   C     -3.452440    0.712200    0.112300
|  7>   C     -2.854410    2.067000   -0.087770
|  8>   C     -2.180790    2.294020   -1.303530
|  9>   C     -0.978290    2.991150   -1.337050
| 10>   C     -0.394940    3.491070   -0.156240
| 11>   C     -1.263000    3.595630    0.953140
| 12>   C     -2.468100    2.896110    0.987490
| 13>   C     -3.146900    0.051140    1.317720
| 14>   C     -2.852670   -1.307900    1.334290
| 15>   C     -2.850710   -2.064690    0.146350
| 16>   C     -1.750560   -3.060350   -0.028940
| 17>   C     -1.025270   -3.587410    1.061510
| 18>   C      0.359930   -3.723820    0.999750
| 19>   C      1.078790   -3.341450   -0.154950
| 20>   C      2.376020   -2.603670   -0.071370
| 21>   C      2.794420   -2.071370    1.166140
| 22>   C      3.369220   -0.807520    1.249940
| 23>   C      3.524920   -0.003220    0.100850
| 24>   C      3.484330   -0.703720   -1.123830
| 25>   C      2.936100   -1.979970   -1.207000
| 26>   C      0.306000   -3.214710   -1.327120
| 27>   C     -1.075390   -3.072660   -1.265180
| 28>   C     -3.530490   -1.484270   -0.947070
| 29>   C     -3.824850   -0.121940   -0.964160
| 30>   H     -2.470040    1.740800   -2.191530
| 31>   H     -0.396430    2.946550   -2.251890
| 32>   H     -0.933730    4.101650    1.857050
| 33>   H     -3.032730    2.880270    1.916480
| 34>   H     -2.915890    0.629970    2.206500
| 35>   H     -2.408990   -1.717030    2.236330
| 36>   H     -1.518110   -3.748470    2.016950
| 37>   H      0.889060   -3.984550    1.912210
| 38>   H      2.505840   -2.555680    2.093910
| 39>   H      3.522750   -0.388580    2.239500
| 40>   H      3.717610   -0.193820   -2.053560
| 41>   H      2.793000   -2.407790   -2.194860
| 42>   H      0.786250   -3.012770   -2.278630
| 43>   H     -1.591470   -2.756600   -2.166300
| 44>   H     -3.697240   -2.061540   -1.853050
| 45>   H     -4.208860    0.314830   -1.882820
| 46>   H      0.610698    3.929611   -0.148087
| 47>   H      3.845536    1.044192    0.161662
| 48>
| 49> **                         ****END OF INPUT****
 Total Charge           Charge          ....    0
 Multiplicity           Mult            ....    1
 Number of Electrons    NEL             ....  162
FINAL SINGLE POINT ENERGY      -913.364179628853
FINAL SINGLE POINT ENERGY      -913.379095669626
FINAL SINGLE POINT ENERGY      -913.385492146090
FINAL SINGLE POINT ENERGY      -913.389726209863
FINAL SINGLE POINT ENERGY      -913.392556760503
FINAL SINGLE POINT ENERGY      -913.394638202163
FINAL SINGLE POINT ENERGY      -913.396467213124
FINAL SINGLE POINT ENERGY      -913.398166685518
FINAL SINGLE POINT ENERGY      -913.399823652050
FINAL SINGLE POINT ENERGY      -913.401455706064
FINAL SINGLE POINT ENERGY      -913.499830060081
FINAL SINGLE POINT ENERGY      -913.500850283284
FINAL SINGLE POINT ENERGY      -913.501855203132
FINAL SINGLE POINT ENERGY      -913.502840914533
FINAL SINGLE POINT ENERGY      -913.503794920300
FINAL SINGLE POINT ENERGY      -913.504646865717
FINAL SINGLE POINT ENERGY      -913.504994914432
FINAL SINGLE POINT ENERGY      -913.505047610784
FINAL SINGLE POINT ENERGY      -913.505077302980
                    ***********************HURRAY********************

CARTESIAN COORDINATES (ANGSTROEM)
---------------------------------
  C     -3.129409    1.938648    0.027389
  C     -4.255207    2.948655    0.047375
  C     -4.606214    3.674450   -1.122244
  C     -5.652343    4.614893   -1.101822
  C     -6.373080    4.849887    0.086209
  C     -6.038230    4.137036    1.255037
  C     -4.990756    3.198186    1.236911
  C     -2.339508    1.695082    1.182369
  C     -1.294416    0.757810    1.163353
  C     -0.989778    0.020341   -0.011906
  C      0.135171   -0.988017   -0.033092
  C      0.498627   -1.707464    1.136918
  C      1.543919   -2.644388    1.118157
  C      2.275122   -2.905671   -0.071300
  C      3.401625   -3.914944   -0.091142
  C      4.196806   -4.144883    1.063270
  C      5.245248   -5.082741    1.042887
  C      5.521512   -5.813934   -0.129766
  C      4.740985   -5.598542   -1.283358
  C      3.693924   -4.659225   -1.265402
  C      1.912016   -2.186379   -1.240997
  C      0.866335   -1.249742   -1.222530
  C     -1.779903    0.264162   -1.167260
  C     -2.825218    1.200993   -1.147893
  H     -4.043594    3.511457   -2.050737
  H     -5.903720    5.170010   -2.015907
  H     -6.598365    4.310482    2.184056
  H     -4.749149    2.638997    2.150206
  H     -2.533596    2.263157    2.101572
  H     -0.690337    0.609670    2.068039
  H     -0.059730   -1.545039    2.068119
  H      1.784458   -3.198308    2.034999
  H      4.001632   -3.571632    1.978964
  H      5.852083   -5.240890    1.944935
  H      4.946297   -6.167971   -2.200152
  H      3.084348   -4.510908   -2.166319
  H      2.470634   -2.348846   -2.172051
  H      0.626052   -0.696114   -2.139604
  H     -1.585627   -0.303825   -2.086462
  H     -3.429708    1.349362   -2.052276
  H     -7.190449    5.583577    0.101232
  H      6.339717   -6.546697   -0.144642

 Multiplicity           Mult            ....    1
 Number of Electrons    NEL             ....  162
 Basis Dimension        Dim             ....  138

ORBITAL ENERGIES
----------------

  NO   OCC          E(Eh)            E(eV)
   0   2.0000     -10.017594      -272.5926
   1   2.0000     -10.017367      -272.5864
   2   2.0000     -10.017362      -272.5863
   3   2.0000     -10.016608      -272.5658
   4   2.0000     -10.016377      -272.5595
   5   2.0000     -10.016373      -272.5594
   6   2.0000     -10.003872      -272.2192
   7   2.0000     -10.003869      -272.2191
   8   2.0000     -10.003520      -272.2096
   9   2.0000     -10.003516      -272.2095
  10   2.0000     -10.003203      -272.2010
  11   2.0000     -10.003190      -272.2006
  12   2.0000     -10.003171      -272.2001
  13   2.0000     -10.003164      -272.1999
  14   2.0000     -10.002881      -272.1922
  15   2.0000     -10.002879      -272.1922
  16   2.0000     -10.002551      -272.1832
  17   2.0000     -10.002543      -272.1830
  18   2.0000     -10.002407      -272.1793
  19   2.0000     -10.002389      -272.1788
  20   2.0000     -10.002188      -272.1734
  21   2.0000     -10.002187      -272.1733
  22   2.0000     -10.002052      -272.1697
  23   2.0000     -10.002049      -272.1696
  24   2.0000      -0.816918       -22.2295
  25   2.0000      -0.809142       -22.0179
  26   2.0000      -0.797480       -21.7005
  27   2.0000      -0.785617       -21.3777
  28   2.0000      -0.737568       -20.0703
  29   2.0000      -0.712391       -19.3851
  30   2.0000      -0.701960       -19.1013
  31   2.0000      -0.697965       -18.9926
  32   2.0000      -0.693086       -18.8598
  33   2.0000      -0.689328       -18.7576
  34   2.0000      -0.681626       -18.5480
  35   2.0000      -0.650766       -17.7082
  36   2.0000      -0.584902       -15.9160
  37   2.0000      -0.578298       -15.7363
  38   2.0000      -0.564952       -15.3731
  39   2.0000      -0.557633       -15.1740
  40   2.0000      -0.547657       -14.9025
  41   2.0000      -0.533551       -14.5187
  42   2.0000      -0.532332       -14.4855
  43   2.0000      -0.519574       -14.1383
  44   2.0000      -0.486728       -13.2445
  45   2.0000      -0.476085       -12.9549
  46   2.0000      -0.454613       -12.3707
  47   2.0000      -0.434070       -11.8116
  48   2.0000      -0.431765       -11.7489
  49   2.0000      -0.416809       -11.3420
  50   2.0000      -0.400656       -10.9024
  51   2.0000      -0.400266       -10.8918
  52   2.0000      -0.399352       -10.8669
  53   2.0000      -0.391396       -10.6504
  54   2.0000      -0.381680       -10.3861
  55   2.0000      -0.380476       -10.3533
  56   2.0000      -0.375964       -10.2305
  57   2.0000      -0.370401       -10.0791
  58   2.0000      -0.369433       -10.0528
  59   2.0000      -0.364273        -9.9124
  60   2.0000      -0.364177        -9.9098
  61   2.0000      -0.334455        -9.1010
  62   2.0000      -0.322691        -8.7809
  63   2.0000      -0.319813        -8.7025
  64   2.0000      -0.308899        -8.4056
  65   2.0000      -0.307770        -8.3749
  66   2.0000      -0.305553        -8.3145
  67   2.0000      -0.296687        -8.0733
  68   2.0000      -0.292218        -7.9517
  69   2.0000      -0.286572        -7.7980
  70   2.0000      -0.284161        -7.7324
  71   2.0000      -0.277712        -7.5569
  72   2.0000      -0.277008        -7.5378
  73   2.0000      -0.230479        -6.2716
  74   2.0000      -0.203809        -5.5459
  75   2.0000      -0.192157        -5.2289
  76   2.0000      -0.191357        -5.2071
  77   2.0000      -0.190510        -5.1840
  78   2.0000      -0.190322        -5.1789
  79   2.0000      -0.172202        -4.6859
  80   2.0000      -0.144573        -3.9340
  81   0.0000       0.036921         1.0047
  82   0.0000       0.069707         1.8968
  83   0.0000       0.090767         2.4699
  84   0.0000       0.091553         2.4913
  85   0.0000       0.092815         2.5256

MULLIKEN ATOMIC CHARGES
-----------------------
   0 C :   -0.003400
   1 C :   -0.003746
   2 C :   -0.077709
   3 C :   -0.079050
   4 C :   -0.078170
   5 C :   -0.079049
   6 C :   -0.077743
   7 C :   -0.078475
   8 C :   -0.078265
   9 C :   -0.003688
  10 C :   -0.003736
  11 C :   -0.078243
  12 C :   -0.078493
  13 C :   -0.003440
  14 C :   -0.003693
  15 C :   -0.077748
  16 C :   -0.079023
  17 C :   -0.078167
  18 C :   -0.079020
  19 C :   -0.077692
  20 C :   -0.078441
  21 C :   -0.078320
  22 C :   -0.078286
  23 C :   -0.078431
  24 H :    0.079299
  25 H :    0.079484
  26 H :    0.079459
  27 H :    0.079366
  28 H :    0.079811
  29 H :    0.079661
  30 H :    0.079666
  31 H :    0.079864
  32 H :    0.079338
  33 H :    0.079432
  34 H :    0.079457
  35 H :    0.079272
  36 H :    0.079780
  37 H :    0.079771
  38 H :    0.079705
  39 H :    0.079758
  40 H :    0.079463
  41 H :    0.079442
Sum of atomic charges:   -0.0000000

LOEWDIN ATOMIC CHARGES
----------------------
   0 C :    0.003010
   1 C :    0.002624
   2 C :   -0.045143
   3 C :   -0.043034
   4 C :   -0.042062
   5 C :   -0.043031
   6 C :   -0.045165
   7 C :   -0.045915
   8 C :   -0.045706
   9 C :    0.002667
  10 C :    0.002628
  11 C :   -0.045683
  12 C :   -0.045910
  13 C :    0.002979
  14 C :    0.002667
  15 C :   -0.045179
  16 C :   -0.043012
  17 C :   -0.042067
  18 C :   -0.043015
  19 C :   -0.045129
  20 C :   -0.045883
  21 C :   -0.045739
  22 C :   -0.045722
  23 C :   -0.045867
  24 H :    0.043612
  25 H :    0.043357
  26 H :    0.043341
  27 H :    0.043657
  28 H :    0.044063
  29 H :    0.043952
  30 H :    0.043952
  31 H :    0.044099
  32 H :    0.043639
  33 H :    0.043322
  34 H :    0.043340
  35 H :    0.043592
  36 H :    0.044040
  37 H :    0.044029
  38 H :    0.043979
  39 H :    0.044024
  40 H :    0.043351
  41 H :    0.043338

  Mayer bond orders larger than 0.100000
B(  0-C ,  1-C ) :   1.0337 B(  0-C ,  7-C ) :   1.3756 B(  0-C ,  9-C ) :   0.1026
B(  0-C , 23-C ) :   1.3750 B(  1-C ,  2-C ) :   1.3826 B(  1-C ,  4-C ) :   0.1091
B(  1-C ,  6-C ) :   1.3822 B(  2-C ,  3-C ) :   1.4428 B(  2-C ,  5-C ) :   0.1102
B(  2-C , 24-H ) :   0.9603 B(  3-C ,  4-C ) :   1.4239 B(  3-C ,  6-C ) :   0.1101
B(  3-C , 25-H ) :   0.9631 B(  4-C ,  5-C ) :   1.4235 B(  4-C , 40-H ) :   0.9635
B(  5-C ,  6-C ) :   1.4431 B(  5-C , 26-H ) :   0.9631 B(  6-C , 27-H ) :   0.9603
B(  7-C ,  8-C ) :   1.4562 B(  7-C , 22-C ) :   0.1035 B(  7-C , 28-H ) :   0.9600
B(  8-C ,  9-C ) :   1.3743 B(  8-C , 23-C ) :   0.1035 B(  8-C , 29-H ) :   0.9600
B(  9-C , 10-C ) :   1.0370 B(  9-C , 22-C ) :   1.3738 B( 10-C , 11-C ) :   1.3738
B( 10-C , 13-C ) :   0.1026 B( 10-C , 21-C ) :   1.3743 B( 11-C , 12-C ) :   1.4568
B( 11-C , 20-C ) :   0.1035 B( 11-C , 30-H ) :   0.9600 B( 12-C , 13-C ) :   1.3751
B( 12-C , 21-C ) :   0.1035 B( 12-C , 31-H ) :   0.9600 B( 13-C , 14-C ) :   1.0336
B( 13-C , 20-C ) :   1.3755 B( 14-C , 15-C ) :   1.3826 B( 14-C , 17-C ) :   0.1091
B( 14-C , 19-C ) :   1.3823 B( 15-C , 16-C ) :   1.4427 B( 15-C , 18-C ) :   0.1102
B( 15-C , 32-H ) :   0.9604 B( 16-C , 17-C ) :   1.4239 B( 16-C , 19-C ) :   0.1102
B( 16-C , 33-H ) :   0.9631 B( 17-C , 18-C ) :   1.4235 B( 17-C , 41-H ) :   0.9635
B( 18-C , 19-C ) :   1.4431 B( 18-C , 34-H ) :   0.9631 B( 19-C , 35-H ) :   0.9604
B( 20-C , 21-C ) :   1.4563 B( 20-C , 36-H ) :   0.9600 B( 21-C , 37-H ) :   0.9600
B( 22-C , 23-C ) :   1.4569 B( 22-C , 38-H ) :   0.9600 B( 23-C , 39-H ) :   0.9600

FINAL SINGLE POINT ENERGY      -913.505079257407

DIPOLE MOMENT
-------------
                                X             Y             Z
Electronic contribution:     -0.00259      -0.00267      -0.00047
Nuclear contribution   :      0.00267       0.00293       0.00053
                        -----------------------------------------
Total Dipole Moment    :      0.00008       0.00027       0.00005
                        -----------------------------------------
Magnitude (a.u.)       :      0.00029
Magnitude (Debye)      :      0.00072

Rotational constants in cm-1:     0.046729     0.002157     0.002075
Rotational constants in MHz :  1400.911426    64.671395    62.217224

                             ****ORCA TERMINATED NORMALLY****
TOTAL RUN TIME: 0 days 0 hours 17 minutes 3 seconds 513 msec
