                         Program Version 4.2.1 -  RELEASE  -
|  1> ! B3LYP OPT 6-31G*
|  2> %pal
|  3> 	nprocs 28
|  4> end
|  5> %geom
|  6> 	coordsys redundant_old
|  7> end
|  8> * xyz 0 1
|  9>   C     -3.452440    0.712200    0.112300
| 10>   C     -2.854410    2.067000   -0.087770
| 11>   C     -2.180790    2.294020   -1.303530
| 12>   C     -0.978290    2.991150   -1.337050
| 13>   C     -0.394940    3.491070   -0.156240
| 14>   C      1.085330    3.355000   -0.004690
| 15>   C      1.935590    3.128250   -1.108620
| 16>   C      2.967690    2.195930   -1.036350
| 17>   C      3.201690    1.456150    0.144260
| 18>   C      2.625670    1.998840    1.311420
| 19>   C      1.586750    2.919730    1.238160
| 20>   C     -1.263000    3.595630    0.953140
| 21>   C     -2.468100    2.896110    0.987490
| 22>   C     -3.146900    0.051140    1.317720
| 23>   C     -2.852670   -1.307900    1.334290
| 24>   C     -2.850710   -2.064690    0.146350
| 25>   C      2.376020   -2.603670   -0.071370
| 26>   C      2.794420   -2.071370    1.166140
| 27>   C      3.369220   -0.807520    1.249940
| 28>   C      3.524920   -0.003220    0.100850
| 29>   C      3.484330   -0.703720   -1.123830
| 30>   C      2.936100   -1.979970   -1.207000
| 31>   C     -3.530490   -1.484270   -0.947070
| 32>   C     -3.824850   -0.121940   -0.964160
| 33>   H     -2.470040    1.740800   -2.191530
| 34>   H     -0.396430    2.946550   -2.251890
| 35>   H      1.699310    3.559720   -2.077720
| 36>   H      3.484470    1.937480   -1.956170
| 37>   H      2.836720    1.561420    2.281440
| 38>   H      1.036660    3.132860    2.149380
| 39>   H     -0.933730    4.101650    1.857050
| 40>   H     -3.032730    2.880270    1.916480
| 41>   H     -2.915890    0.629970    2.206500
| 42>   H     -2.408990   -1.717030    2.236330
| 43>   H      2.505840   -2.555680    2.093910
| 44>   H      3.522750   -0.388580    2.239500
| 45>   H      3.717610   -0.193820   -2.053560
| 46>   H      2.793000   -2.407790   -2.194860
| 47>   H     -3.697240   -2.061540   -1.853050
| 48>   H     -4.208860    0.314830   -1.882820
| 49>   H     -2.502425   -3.091737    0.123934
| 50>   H      1.826581   -3.536275   -0.139411
| 51>
| 52> **                         ****END OF INPUT****
 Total Charge           Charge          ....    0
 Multiplicity           Mult            ....    1
 Number of Electrons    NEL             ....  162
FINAL SINGLE POINT ENERGY      -924.676749755084
FINAL SINGLE POINT ENERGY      -924.696474411054
FINAL SINGLE POINT ENERGY      -924.713823948512
FINAL SINGLE POINT ENERGY      -924.729233909519
FINAL SINGLE POINT ENERGY      -924.743002743897
FINAL SINGLE POINT ENERGY      -924.755293322398
FINAL SINGLE POINT ENERGY      -924.766118191244
FINAL SINGLE POINT ENERGY      -924.775473540797
FINAL SINGLE POINT ENERGY      -924.783407345168
FINAL SINGLE POINT ENERGY      -924.789979752313
FINAL SINGLE POINT ENERGY      -924.795223348618
FINAL SINGLE POINT ENERGY      -924.799152656790
FINAL SINGLE POINT ENERGY      -924.801877622294
FINAL SINGLE POINT ENERGY      -924.803632687085
FINAL SINGLE POINT ENERGY      -924.804596761129
FINAL SINGLE POINT ENERGY      -924.804883175859
FINAL SINGLE POINT ENERGY      -924.804924364085
FINAL SINGLE POINT ENERGY      -924.804950798530
                    ***********************HURRAY********************

CARTESIAN COORDINATES (ANGSTROEM)
---------------------------------
  C     -4.982861    1.136717    0.073445
  C     -3.505624    0.989143    0.060527
  C     -2.826800    0.545801   -1.087949
  C     -1.441688    0.409063   -1.100986
  C     -0.668154    0.709451    0.034082
  C      0.807818    0.564738    0.021186
  C      1.560711    0.860307   -1.128912
  C      2.945948    0.724452   -1.140177
  C      3.645604    0.286816   -0.002104
  C      2.893041   -0.008326    1.148002
  C      1.507836    0.127316    1.159397
  C     -1.347295    1.152715    1.182686
  C     -2.732399    1.289054    1.195638
  C     -5.732449    0.818929    1.220026
  C     -7.119848    0.960579    1.232687
  C     -7.791028    1.421877    0.097792
  C      7.932081   -0.137063   -0.038561
  C      7.279936    0.328393    1.105679
  C      5.892144    0.466829    1.116794
  C      5.123170    0.141654   -0.014784
  C      5.794364   -0.325413   -1.158855
  C      7.182236   -0.462504   -1.171242
  C     -7.060553    1.740453   -1.049424
  C     -5.673060    1.600037   -1.060864
  H     -3.395590    0.269926   -1.971842
  H     -0.954900    0.029107   -1.995081
  H      1.057923    1.235958   -2.015944
  H      3.498182    0.996256   -2.035740
  H      3.396341   -0.383055    2.035143
  H      0.955872   -0.145546    2.054785
  H     -0.778902    1.429314    2.066576
  H     -3.219661    1.668718    2.089614
  H     -5.224698    0.433265    2.099957
  H     -7.678330    0.700646    2.128660
  H      7.853256    0.593783    1.990600
  H      5.399289    0.855166    2.003972
  H      5.219632   -0.608388   -2.036639
  H      7.677349   -0.833870   -2.065202
  H     -7.570714    2.108763   -1.936153
  H     -5.112820    1.878113   -1.949507
  H     -8.872325    1.533805    0.107857
  H      9.013714   -0.245932   -0.047245

 Multiplicity           Mult            ....    1
 Number of Electrons    NEL             ....  162
 Basis Dimension        Dim             ....  372

ORBITAL ENERGIES
----------------

  NO   OCC          E(Eh)            E(eV)
   0   2.0000     -10.190282      -277.2917
   1   2.0000     -10.190083      -277.2862
   2   2.0000     -10.190024      -277.2846
   3   2.0000     -10.190003      -277.2841
   4   2.0000     -10.189822      -277.2791
   5   2.0000     -10.189800      -277.2786
   6   2.0000     -10.180429      -277.0236
   7   2.0000     -10.180414      -277.0231
   8   2.0000     -10.180245      -277.0186
   9   2.0000     -10.180233      -277.0182
  10   2.0000     -10.180143      -277.0158
  11   2.0000     -10.180140      -277.0157
  12   2.0000     -10.180119      -277.0151
  13   2.0000     -10.180116      -277.0150
  14   2.0000     -10.179732      -277.0046
  15   2.0000     -10.179716      -277.0042
  16   2.0000     -10.179673      -277.0030
  17   2.0000     -10.179666      -277.0028
  18   2.0000     -10.179651      -277.0024
  19   2.0000     -10.179646      -277.0023
  20   2.0000     -10.179017      -276.9851
  21   2.0000     -10.178993      -276.9845
  22   2.0000     -10.178977      -276.9841
  23   2.0000     -10.178976      -276.9840
  24   2.0000      -0.867646       -23.6098
  25   2.0000      -0.859199       -23.3800
  26   2.0000      -0.846662       -23.0388
  27   2.0000      -0.834317       -22.7029
  28   2.0000      -0.787642       -21.4328
  29   2.0000      -0.760878       -20.7045
  30   2.0000      -0.746625       -20.3167
  31   2.0000      -0.742526       -20.2052
  32   2.0000      -0.737776       -20.0759
  33   2.0000      -0.734414       -19.9844
  34   2.0000      -0.728884       -19.8339
  35   2.0000      -0.697443       -18.9784
  36   2.0000      -0.632365       -17.2075
  37   2.0000      -0.621421       -16.9097
  38   2.0000      -0.608076       -16.5466
  39   2.0000      -0.602496       -16.3948
  40   2.0000      -0.591575       -16.0976
  41   2.0000      -0.577685       -15.7196
  42   2.0000      -0.576823       -15.6962
  43   2.0000      -0.562781       -15.3140
  44   2.0000      -0.529752       -14.4153
  45   2.0000      -0.519689       -14.1415
  46   2.0000      -0.499665       -13.5966
  47   2.0000      -0.473485       -12.8842
  48   2.0000      -0.471985       -12.8434
  49   2.0000      -0.467002       -12.7078
  50   2.0000      -0.449585       -12.2338
  51   2.0000      -0.442143       -12.0313
  52   2.0000      -0.440323       -11.9818
  53   2.0000      -0.433054       -11.7840
  54   2.0000      -0.432423       -11.7668
  55   2.0000      -0.423893       -11.5347
  56   2.0000      -0.421264       -11.4632
  57   2.0000      -0.417562       -11.3624
  58   2.0000      -0.412936       -11.2366
  59   2.0000      -0.412836       -11.2338
  60   2.0000      -0.409419       -11.1409
  61   2.0000      -0.381837       -10.3903
  62   2.0000      -0.370990       -10.0951
  63   2.0000      -0.369458       -10.0535
  64   2.0000      -0.359094        -9.7715
  65   2.0000      -0.354210        -9.6385
  66   2.0000      -0.352014        -9.5788
  67   2.0000      -0.344960        -9.3868
  68   2.0000      -0.341549        -9.2940
  69   2.0000      -0.336234        -9.1494
  70   2.0000      -0.331118        -9.0102
  71   2.0000      -0.328852        -8.9485
  72   2.0000      -0.324892        -8.8408
  73   2.0000      -0.284791        -7.7496
  74   2.0000      -0.259008        -7.0480
  75   2.0000      -0.248038        -6.7495
  76   2.0000      -0.247125        -6.7246
  77   2.0000      -0.245919        -6.6918
  78   2.0000      -0.245790        -6.6883
  79   2.0000      -0.229400        -6.2423
  80   2.0000      -0.203664        -5.5420
  81   0.0000      -0.040815        -1.1106
  82   0.0000      -0.011180        -0.3042
  83   0.0000      -0.002493        -0.0678
  84   0.0000       0.000897         0.0244
  85   0.0000       0.003732         0.1015

MULLIKEN ATOMIC CHARGES
-----------------------
   0 C :    0.090235
   1 C :    0.095304
   2 C :   -0.179598
   3 C :   -0.179806
   4 C :    0.096875
   5 C :    0.097014
   6 C :   -0.180068
   7 C :   -0.179461
   8 C :    0.095453
   9 C :   -0.180042
  10 C :   -0.179553
  11 C :   -0.179598
  12 C :   -0.179735
  13 C :   -0.172363
  14 C :   -0.132466
  15 C :   -0.124020
  16 C :   -0.123863
  17 C :   -0.132621
  18 C :   -0.172043
  19 C :    0.090078
  20 C :   -0.171694
  21 C :   -0.133695
  22 C :   -0.133723
  23 C :   -0.171611
  24 H :    0.131685
  25 H :    0.130200
  26 H :    0.130397
  27 H :    0.131548
  28 H :    0.130766
  29 H :    0.131240
  30 H :    0.131361
  31 H :    0.130561
  32 H :    0.129685
  33 H :    0.127827
  34 H :    0.128076
  35 H :    0.129495
  36 H :    0.130480
  37 H :    0.126877
  38 H :    0.127149
  39 H :    0.130401
  40 H :    0.131634
  41 H :    0.131620
Sum of atomic charges:    0.0000000

LOEWDIN ATOMIC CHARGES
----------------------
   0 C :   -0.014529
   1 C :   -0.014938
   2 C :   -0.126221
   3 C :   -0.125896
   4 C :   -0.015601
   5 C :   -0.015611
   6 C :   -0.125932
   7 C :   -0.126172
   8 C :   -0.014915
   9 C :   -0.126048
  10 C :   -0.126088
  11 C :   -0.126120
  12 C :   -0.125990
  13 C :   -0.127765
  14 C :   -0.127804
  15 C :   -0.131234
  16 C :   -0.131217
  17 C :   -0.127849
  18 C :   -0.127703
  19 C :   -0.014523
  20 C :   -0.127838
  21 C :   -0.127769
  22 C :   -0.127806
  23 C :   -0.127791
  24 H :    0.133403
  25 H :    0.133036
  26 H :    0.133075
  27 H :    0.133362
  28 H :    0.133267
  29 H :    0.133196
  30 H :    0.133235
  31 H :    0.133222
  32 H :    0.132321
  33 H :    0.131200
  34 H :    0.131265
  35 H :    0.132276
  36 H :    0.132442
  37 H :    0.131032
  38 H :    0.131093
  39 H :    0.132424
  40 H :    0.131762
  41 H :    0.131747

  Mayer bond orders larger than 0.100000
B(  0-C ,  1-C ) :   1.0131 B(  0-C , 13-C ) :   1.4096 B(  0-C , 23-C ) :   1.4088
B(  1-C ,  2-C ) :   1.4009 B(  1-C , 12-C ) :   1.4017 B(  2-C ,  3-C ) :   1.4309
B(  2-C , 24-H ) :   0.9197 B(  3-C ,  4-C ) :   1.4000 B(  3-C , 25-H ) :   0.9197
B(  4-C ,  5-C ) :   1.0175 B(  4-C , 11-C ) :   1.3993 B(  5-C ,  6-C ) :   1.3999
B(  5-C , 10-C ) :   1.3992 B(  6-C ,  7-C ) :   1.4311 B(  6-C , 26-H ) :   0.9196
B(  7-C ,  8-C ) :   1.4009 B(  7-C , 27-H ) :   0.9198 B(  8-C ,  9-C ) :   1.4016
B(  8-C , 19-C ) :   1.0131 B(  9-C , 10-C ) :   1.4312 B(  9-C , 28-H ) :   0.9197
B( 10-C , 29-H ) :   0.9196 B( 11-C , 12-C ) :   1.4311 B( 11-C , 30-H ) :   0.9196
B( 12-C , 31-H ) :   0.9198 B( 13-C , 14-C ) :   1.4434 B( 13-C , 32-H ) :   0.9201
B( 14-C , 15-C ) :   1.4479 B( 14-C , 33-H ) :   0.9295 B( 15-C , 22-C ) :   1.4479
B( 15-C , 40-H ) :   0.9296 B( 16-C , 17-C ) :   1.4478 B( 16-C , 21-C ) :   1.4480
B( 16-C , 41-H ) :   0.9296 B( 17-C , 18-C ) :   1.4433 B( 17-C , 34-H ) :   0.9294
B( 18-C , 19-C ) :   1.4096 B( 18-C , 35-H ) :   0.9202 B( 19-C , 20-C ) :   1.4089
B( 20-C , 21-C ) :   1.4436 B( 20-C , 36-H ) :   0.9201 B( 21-C , 37-H ) :   0.9294
B( 22-C , 23-C ) :   1.4436 B( 22-C , 38-H ) :   0.9294 B( 23-C , 39-H ) :   0.9201

FINAL SINGLE POINT ENERGY      -924.804951642622

DIPOLE MOMENT
-------------
                                X             Y             Z
Electronic contribution:     -0.00106      -0.00832      -0.00138
Nuclear contribution   :      0.00112       0.00906       0.00287
                        -----------------------------------------
Total Dipole Moment    :      0.00006       0.00074       0.00149
                        -----------------------------------------
Magnitude (a.u.)       :      0.00167
Magnitude (Debye)      :      0.00424

Rotational constants in cm-1:     0.047742     0.002205     0.002127
Rotational constants in MHz :  1431.276572    66.091467    63.753601

                             ****ORCA TERMINATED NORMALLY****
TOTAL RUN TIME: 0 days 0 hours 8 minutes 11 seconds 520 msec
