                         Program Version 4.2.1 -  RELEASE  -
|  1> ! B3LYP OPT 6-31G*
|  2> %pal
|  3> 	nprocs 28
|  4> end
|  5> %geom
|  6> 	coordsys redundant_old
|  7> end
|  8> * xyz 0 1
|  9>   C     -3.452440    0.712200    0.112300
| 10>   C     -2.854410    2.067000   -0.087770
| 11>   C     -2.180790    2.294020   -1.303530
| 12>   C     -0.978290    2.991150   -1.337050
| 13>   C     -0.394940    3.491070   -0.156240
| 14>   C     -1.263000    3.595630    0.953140
| 15>   C     -2.468100    2.896110    0.987490
| 16>   C     -3.146900    0.051140    1.317720
| 17>   C     -2.852670   -1.307900    1.334290
| 18>   C     -2.850710   -2.064690    0.146350
| 19>   C     -1.750560   -3.060350   -0.028940
| 20>   C     -1.025270   -3.587410    1.061510
| 21>   C      0.359930   -3.723820    0.999750
| 22>   C      1.078790   -3.341450   -0.154950
| 23>   C      2.376020   -2.603670   -0.071370
| 24>   C      2.794420   -2.071370    1.166140
| 25>   C      3.369220   -0.807520    1.249940
| 26>   C      3.524920   -0.003220    0.100850
| 27>   C      3.484330   -0.703720   -1.123830
| 28>   C      2.936100   -1.979970   -1.207000
| 29>   C      0.306000   -3.214710   -1.327120
| 30>   C     -1.075390   -3.072660   -1.265180
| 31>   C     -3.530490   -1.484270   -0.947070
| 32>   C     -3.824850   -0.121940   -0.964160
| 33>   H     -2.470040    1.740800   -2.191530
| 34>   H     -0.396430    2.946550   -2.251890
| 35>   H     -0.933730    4.101650    1.857050
| 36>   H     -3.032730    2.880270    1.916480
| 37>   H     -2.915890    0.629970    2.206500
| 38>   H     -2.408990   -1.717030    2.236330
| 39>   H     -1.518110   -3.748470    2.016950
| 40>   H      0.889060   -3.984550    1.912210
| 41>   H      2.505840   -2.555680    2.093910
| 42>   H      3.522750   -0.388580    2.239500
| 43>   H      3.717610   -0.193820   -2.053560
| 44>   H      2.793000   -2.407790   -2.194860
| 45>   H      0.786250   -3.012770   -2.278630
| 46>   H     -1.591470   -2.756600   -2.166300
| 47>   H     -3.697240   -2.061540   -1.853050
| 48>   H     -4.208860    0.314830   -1.882820
| 49>   H      0.598759    3.925844   -0.149027
| 50>   H      3.845398    1.031119    0.160990
| 51>
| 52> **                         ****END OF INPUT****
 Total Charge           Charge          ....    0
 Multiplicity           Mult            ....    1
 Number of Electrons    NEL             ....  162
FINAL SINGLE POINT ENERGY      -924.677122290160
FINAL SINGLE POINT ENERGY      -924.696890022729
FINAL SINGLE POINT ENERGY      -924.714269639456
FINAL SINGLE POINT ENERGY      -924.729684465706
FINAL SINGLE POINT ENERGY      -924.743490023303
FINAL SINGLE POINT ENERGY      -924.755798325863
FINAL SINGLE POINT ENERGY      -924.766619258890
FINAL SINGLE POINT ENERGY      -924.776046460928
FINAL SINGLE POINT ENERGY      -924.784093743791
FINAL SINGLE POINT ENERGY      -924.790761944820
FINAL SINGLE POINT ENERGY      -924.796058405937
FINAL SINGLE POINT ENERGY      -924.800021003051
FINAL SINGLE POINT ENERGY      -924.802740937049
FINAL SINGLE POINT ENERGY      -924.804329696335
FINAL SINGLE POINT ENERGY      -924.804896005978
FINAL SINGLE POINT ENERGY      -924.804946383091
FINAL SINGLE POINT ENERGY      -924.804976215724
                    ***********************HURRAY********************

CARTESIAN COORDINATES (ANGSTROEM)
---------------------------------
  C     -3.097657    1.919293   -0.057963
  C     -4.200817    2.912353   -0.073849
  C     -4.484366    3.660450   -1.230458
  C     -5.521964    4.591870   -1.246910
  C     -6.299503    4.799755   -0.105316
  C     -6.029684    4.065527    1.051858
  C     -4.993897    3.132004    1.066531
  C     -2.309687    1.721500    1.089349
  C     -1.275667    0.790187    1.103784
  C     -0.978305    0.012160   -0.028970
  C      0.124120   -0.979185   -0.013689
  C      0.413093   -1.731573    1.138353
  C      1.447414   -2.662556    1.152458
  C      2.244239   -2.885619    0.015923
  C      3.347426   -3.878552    0.030817
  C      4.131956   -4.072527    1.181673
  C      5.167365   -5.006533    1.195885
  C      5.445210   -5.767230    0.057852
  C      4.675946   -5.585342   -1.093723
  C      3.638795   -4.653330   -1.106105
  C      1.955517   -2.132860   -1.135809
  C      0.920533   -1.202677   -1.150593
  C     -1.766305    0.209883   -1.176421
  C     -2.800955    1.140450   -1.190220
  H     -3.869106    3.527225   -2.116356
  H     -5.717622    5.162588   -2.151434
  H     -6.633276    4.212758    1.944263
  H     -4.812552    2.546602    1.963892
  H     -2.486509    2.331114    1.971412
  H     -0.665153    0.688653    1.997185
  H     -0.203726   -1.610142    2.024925
  H      1.618020   -3.251548    2.049594
  H      3.944554   -3.466938    2.064330
  H      5.764160   -5.133468    2.095951
  H      4.877519   -6.176779   -1.983573
  H      3.030422   -4.540212   -1.999532
  H      2.572670   -2.253458   -2.022229
  H      0.749494   -0.613775   -2.047736
  H     -1.588711   -0.399178   -2.058743
  H     -3.411816    1.241341   -2.083403
  H     -7.108596    5.525724   -0.117743
  H      6.253519   -6.494102    0.068265

 Multiplicity           Mult            ....    1
 Number of Electrons    NEL             ....  162
 Basis Dimension        Dim             ....  372

ORBITAL ENERGIES
----------------

  NO   OCC          E(Eh)            E(eV)
   0   2.0000     -10.190167      -277.2885
   1   2.0000     -10.189994      -277.2838
   2   2.0000     -10.189990      -277.2837
   3   2.0000     -10.189965      -277.2831
   4   2.0000     -10.189788      -277.2782
   5   2.0000     -10.189784      -277.2781
   6   2.0000     -10.180381      -277.0222
   7   2.0000     -10.180365      -277.0218
   8   2.0000     -10.180234      -277.0183
   9   2.0000     -10.180212      -277.0177
  10   2.0000     -10.180190      -277.0171
  11   2.0000     -10.180172      -277.0166
  12   2.0000     -10.180157      -277.0161
  13   2.0000     -10.180142      -277.0158
  14   2.0000     -10.179705      -277.0038
  15   2.0000     -10.179699      -277.0037
  16   2.0000     -10.179691      -277.0035
  17   2.0000     -10.179681      -277.0032
  18   2.0000     -10.179631      -277.0018
  19   2.0000     -10.179618      -277.0015
  20   2.0000     -10.179042      -276.9858
  21   2.0000     -10.179019      -276.9852
  22   2.0000     -10.178983      -276.9842
  23   2.0000     -10.178972      -276.9839
  24   2.0000      -0.867662       -23.6103
  25   2.0000      -0.859211       -23.3803
  26   2.0000      -0.846663       -23.0389
  27   2.0000      -0.834304       -22.7026
  28   2.0000      -0.787696       -21.4343
  29   2.0000      -0.760926       -20.7058
  30   2.0000      -0.746718       -20.3192
  31   2.0000      -0.742647       -20.2085
  32   2.0000      -0.737793       -20.0764
  33   2.0000      -0.734432       -19.9849
  34   2.0000      -0.728915       -19.8348
  35   2.0000      -0.697485       -18.9795
  36   2.0000      -0.632441       -17.2096
  37   2.0000      -0.621547       -16.9132
  38   2.0000      -0.608262       -16.5516
  39   2.0000      -0.602604       -16.3977
  40   2.0000      -0.591412       -16.0931
  41   2.0000      -0.577528       -15.7153
  42   2.0000      -0.576876       -15.6976
  43   2.0000      -0.562806       -15.3147
  44   2.0000      -0.529815       -14.4170
  45   2.0000      -0.519724       -14.1424
  46   2.0000      -0.499528       -13.5928
  47   2.0000      -0.473534       -12.8855
  48   2.0000      -0.472255       -12.8507
  49   2.0000      -0.467065       -12.7095
  50   2.0000      -0.449715       -12.2374
  51   2.0000      -0.442361       -12.0373
  52   2.0000      -0.440251       -11.9798
  53   2.0000      -0.432790       -11.7768
  54   2.0000      -0.432354       -11.7649
  55   2.0000      -0.423661       -11.5284
  56   2.0000      -0.421459       -11.4685
  57   2.0000      -0.417765       -11.3680
  58   2.0000      -0.412992       -11.2381
  59   2.0000      -0.412813       -11.2332
  60   2.0000      -0.409318       -11.1381
  61   2.0000      -0.381836       -10.3903
  62   2.0000      -0.371214       -10.1012
  63   2.0000      -0.369723       -10.0607
  64   2.0000      -0.359108        -9.7718
  65   2.0000      -0.354147        -9.6368
  66   2.0000      -0.352254        -9.5853
  67   2.0000      -0.344904        -9.3853
  68   2.0000      -0.341725        -9.2988
  69   2.0000      -0.336444        -9.1551
  70   2.0000      -0.330969        -9.0061
  71   2.0000      -0.329092        -8.9550
  72   2.0000      -0.324739        -8.8366
  73   2.0000      -0.285071        -7.7572
  74   2.0000      -0.259351        -7.0573
  75   2.0000      -0.248014        -6.7488
  76   2.0000      -0.247157        -6.7255
  77   2.0000      -0.245830        -6.6894
  78   2.0000      -0.245683        -6.6854
  79   2.0000      -0.229212        -6.2372
  80   2.0000      -0.203504        -5.5376
  81   0.0000      -0.040975        -1.1150
  82   0.0000      -0.011404        -0.3103
  83   0.0000      -0.002624        -0.0714
  84   0.0000       0.000579         0.0158
  85   0.0000       0.003966         0.1079

MULLIKEN ATOMIC CHARGES
-----------------------
   0 C :    0.094164
   1 C :    0.088263
   2 C :   -0.172648
   3 C :   -0.131715
   4 C :   -0.124934
   5 C :   -0.133972
   6 C :   -0.171046
   7 C :   -0.179667
   8 C :   -0.180017
   9 C :    0.094452
  10 C :    0.094102
  11 C :   -0.180118
  12 C :   -0.179090
  13 C :    0.093831
  14 C :    0.088605
  15 C :   -0.171533
  16 C :   -0.134041
  17 C :   -0.124518
  18 C :   -0.132186
  19 C :   -0.172553
  20 C :   -0.180642
  21 C :   -0.178594
  22 C :   -0.179102
  23 C :   -0.180507
  24 H :    0.130963
  25 H :    0.128046
  26 H :    0.128858
  27 H :    0.130590
  28 H :    0.132153
  29 H :    0.131933
  30 H :    0.131954
  31 H :    0.131942
  32 H :    0.130755
  33 H :    0.128732
  34 H :    0.128377
  35 H :    0.130945
  36 H :    0.132312
  37 H :    0.131613
  38 H :    0.131807
  39 H :    0.132301
  40 H :    0.130141
  41 H :    0.130046
Sum of atomic charges:   -0.0000000

LOEWDIN ATOMIC CHARGES
----------------------
   0 C :   -0.014890
   1 C :   -0.014623
   2 C :   -0.127844
   3 C :   -0.127584
   4 C :   -0.130956
   5 C :   -0.127900
   6 C :   -0.127658
   7 C :   -0.126099
   8 C :   -0.126070
   9 C :   -0.015573
  10 C :   -0.015620
  11 C :   -0.126080
  12 C :   -0.126010
  13 C :   -0.014938
  14 C :   -0.014577
  15 C :   -0.127719
  16 C :   -0.127907
  17 C :   -0.130898
  18 C :   -0.127707
  19 C :   -0.127813
  20 C :   -0.126183
  21 C :   -0.125923
  22 C :   -0.125983
  23 C :   -0.126194
  24 H :    0.132308
  25 H :    0.131181
  26 H :    0.131283
  27 H :    0.132312
  28 H :    0.133324
  29 H :    0.133143
  30 H :    0.133145
  31 H :    0.133289
  32 H :    0.132331
  33 H :    0.131259
  34 H :    0.131248
  35 H :    0.132303
  36 H :    0.133276
  37 H :    0.133164
  38 H :    0.133199
  39 H :    0.133280
  40 H :    0.131354
  41 H :    0.131349

  Mayer bond orders larger than 0.100000
B(  0-C ,  1-C ) :   1.0149 B(  0-C ,  7-C ) :   1.4014 B(  0-C , 23-C ) :   1.4021
B(  1-C ,  2-C ) :   1.4100 B(  1-C ,  6-C ) :   1.4091 B(  2-C ,  3-C ) :   1.4417
B(  2-C , 24-H ) :   0.9200 B(  3-C ,  4-C ) :   1.4479 B(  3-C , 25-H ) :   0.9298
B(  4-C ,  5-C ) :   1.4484 B(  4-C , 40-H ) :   0.9303 B(  5-C ,  6-C ) :   1.4417
B(  5-C , 26-H ) :   0.9297 B(  6-C , 27-H ) :   0.9201 B(  7-C ,  8-C ) :   1.4296
B(  7-C , 28-H ) :   0.9197 B(  8-C ,  9-C ) :   1.4010 B(  8-C , 29-H ) :   0.9198
B(  9-C , 10-C ) :   1.0172 B(  9-C , 22-C ) :   1.4002 B( 10-C , 11-C ) :   1.4011
B( 10-C , 21-C ) :   1.4000 B( 11-C , 12-C ) :   1.4295 B( 11-C , 30-H ) :   0.9198
B( 12-C , 13-C ) :   1.4012 B( 12-C , 31-H ) :   0.9197 B( 13-C , 14-C ) :   1.0149
B( 13-C , 20-C ) :   1.4021 B( 14-C , 15-C ) :   1.4093 B( 14-C , 19-C ) :   1.4100
B( 15-C , 16-C ) :   1.4417 B( 15-C , 32-H ) :   0.9200 B( 16-C , 17-C ) :   1.4485
B( 16-C , 33-H ) :   0.9297 B( 17-C , 18-C ) :   1.4480 B( 17-C , 41-H ) :   0.9303
B( 18-C , 19-C ) :   1.4420 B( 18-C , 34-H ) :   0.9297 B( 19-C , 35-H ) :   0.9200
B( 20-C , 21-C ) :   1.4296 B( 20-C , 36-H ) :   0.9197 B( 21-C , 37-H ) :   0.9199
B( 22-C , 23-C ) :   1.4297 B( 22-C , 38-H ) :   0.9198 B( 23-C , 39-H ) :   0.9196

FINAL SINGLE POINT ENERGY      -924.804977424270

DIPOLE MOMENT
-------------
                                X             Y             Z
Electronic contribution:      0.00089       0.00150       0.00525
Nuclear contribution   :     -0.00116      -0.00149      -0.00598
                        -----------------------------------------
Total Dipole Moment    :     -0.00027       0.00001      -0.00072
                        -----------------------------------------
Magnitude (a.u.)       :      0.00077
Magnitude (Debye)      :      0.00196

Rotational constants in cm-1:     0.047747     0.002205     0.002126
Rotational constants in MHz :  1431.405924    66.118824    63.749500

                             ****ORCA TERMINATED NORMALLY****
TOTAL RUN TIME: 0 days 0 hours 7 minutes 44 seconds 771 msec
