                         Program Version 4.2.1 -  RELEASE  -
|  1> ! B3LYP OPT STO-3G
|  2> %pal
|  3> 	nprocs 28
|  4> end
|  5> * xyz 0 1
|  6>   C     -3.452440    0.712200    0.112300
|  7>   C     -2.854410    2.067000   -0.087770
|  8>   C     -2.180790    2.294020   -1.303530
|  9>   C     -0.978290    2.991150   -1.337050
| 10>   C     -0.394940    3.491070   -0.156240
| 11>   C      1.085330    3.355000   -0.004690
| 12>   C      1.935590    3.128250   -1.108620
| 13>   C      2.967690    2.195930   -1.036350
| 14>   C      3.201690    1.456150    0.144260
| 15>   C      2.625670    1.998840    1.311420
| 16>   C      1.586750    2.919730    1.238160
| 17>   C     -1.263000    3.595630    0.953140
| 18>   C     -2.468100    2.896110    0.987490
| 19>   C     -3.146900    0.051140    1.317720
| 20>   C     -2.852670   -1.307900    1.334290
| 21>   C     -2.850710   -2.064690    0.146350
| 22>   C     -1.750560   -3.060350   -0.028940
| 23>   C     -1.025270   -3.587410    1.061510
| 24>   C      0.359930   -3.723820    0.999750
| 25>   C      1.078790   -3.341450   -0.154950
| 26>   C      0.306000   -3.214710   -1.327120
| 27>   C     -1.075390   -3.072660   -1.265180
| 28>   C     -3.530490   -1.484270   -0.947070
| 29>   C     -3.824850   -0.121940   -0.964160
| 30>   H     -2.470040    1.740800   -2.191530
| 31>   H     -0.396430    2.946550   -2.251890
| 32>   H      1.699310    3.559720   -2.077720
| 33>   H      3.484470    1.937480   -1.956170
| 34>   H      2.836720    1.561420    2.281440
| 35>   H      1.036660    3.132860    2.149380
| 36>   H     -0.933730    4.101650    1.857050
| 37>   H     -3.032730    2.880270    1.916480
| 38>   H     -2.915890    0.629970    2.206500
| 39>   H     -2.408990   -1.717030    2.236330
| 40>   H     -1.518110   -3.748470    2.016950
| 41>   H      0.889060   -3.984550    1.912210
| 42>   H      0.786250   -3.012770   -2.278630
| 43>   H     -1.591470   -2.756600   -2.166300
| 44>   H     -3.697240   -2.061540   -1.853050
| 45>   H     -4.208860    0.314830   -1.882820
| 46>   H      3.927006    0.633881    0.181459
| 47>   H      2.175554   -3.323817   -0.177385
| 48>
| 49> **                         ****END OF INPUT****
 Total Charge           Charge          ....    0
 Multiplicity           Mult            ....    1
 Number of Electrons    NEL             ....  162
FINAL SINGLE POINT ENERGY      -913.364111016205
FINAL SINGLE POINT ENERGY      -913.379102269293
FINAL SINGLE POINT ENERGY      -913.385516224569
FINAL SINGLE POINT ENERGY      -913.389733556348
FINAL SINGLE POINT ENERGY      -913.392540990564
FINAL SINGLE POINT ENERGY      -913.394664822788
FINAL SINGLE POINT ENERGY      -913.396481339176
FINAL SINGLE POINT ENERGY      -913.398180601820
FINAL SINGLE POINT ENERGY      -913.399832795057
FINAL SINGLE POINT ENERGY      -913.401459791530
FINAL SINGLE POINT ENERGY      -913.499792682649
FINAL SINGLE POINT ENERGY      -913.500831258345
FINAL SINGLE POINT ENERGY      -913.501858839979
FINAL SINGLE POINT ENERGY      -913.502868253410
FINAL SINGLE POINT ENERGY      -913.503837165721
FINAL SINGLE POINT ENERGY      -913.504693646913
FINAL SINGLE POINT ENERGY      -913.505039884103
FINAL SINGLE POINT ENERGY      -913.505111327027
FINAL SINGLE POINT ENERGY      -913.505137066712
                    ***********************HURRAY********************

CARTESIAN COORDINATES (ANGSTROEM)
---------------------------------
  C     -0.893550   -0.430356    0.003341
  C     -0.283871    0.952161   -0.014743
  C      0.296505    1.485532   -1.196549
  C      0.862447    2.770384   -1.211547
  C      0.874119    3.582454   -0.046194
  C      1.483568    4.966965   -0.063189
  C      1.461068    5.759643   -1.242106
  C      2.026593    7.047694   -1.257853
  C      2.629928    7.572718   -0.097230
  C      2.661799    6.798399    1.080048
  C      2.094384    5.511097    1.098196
  C      0.293643    3.049325    1.135662
  C     -0.271716    1.764368    1.151021
  C     -0.884143   -1.222793    1.182423
  C     -1.450911   -2.507239    1.199511
  C     -2.054386   -3.059466    0.038383
  C     -2.666377   -4.442834    0.055684
  C     -3.256103   -4.965791    1.237687
  C     -3.826755   -6.251623    1.252225
  C     -3.819242   -7.045685    0.087634
  C     -3.236891   -6.541914   -1.092863
  C     -2.668101   -5.255255   -1.109764
  C     -2.063925   -2.267177   -1.140796
  C     -1.496668   -0.983074   -1.158265
  H      0.324333    0.877158   -2.109999
  H      1.321623    3.143855   -2.136193
  H      0.981903    5.367786   -2.148773
  H      1.992853    7.645891   -2.178708
  H      3.134831    7.197474    1.987725
  H      2.139763    4.913297    2.017858
  H      0.265707    3.658161    2.048798
  H     -0.730690    1.390788    2.075706
  H     -0.407513   -0.834592    2.092049
  H     -1.406307   -3.100479    2.122219
  H     -3.282541   -4.352263    2.147666
  H     -4.283356   -6.634182    2.175287
  H     -3.222164   -7.155517   -2.004028
  H     -2.205499   -4.879973   -2.031910
  H     -2.541034   -2.655644   -2.050058
  H     -1.541075   -0.389861   -2.080985
  H      3.072505    8.578006   -0.110470
  H     -4.264583   -8.049765    0.100119

 Multiplicity           Mult            ....    1
 Number of Electrons    NEL             ....  162
 Basis Dimension        Dim             ....  138

ORBITAL ENERGIES
----------------

  NO   OCC          E(Eh)            E(eV)
   0   2.0000     -10.017652      -272.5942
   1   2.0000     -10.017432      -272.5882
   2   2.0000     -10.017430      -272.5881
   3   2.0000     -10.016666      -272.5674
   4   2.0000     -10.016442      -272.5613
   5   2.0000     -10.016441      -272.5612
   6   2.0000     -10.003839      -272.2183
   7   2.0000     -10.003833      -272.2181
   8   2.0000     -10.003560      -272.2107
   9   2.0000     -10.003552      -272.2105
  10   2.0000     -10.003309      -272.2039
  11   2.0000     -10.003287      -272.2033
  12   2.0000     -10.003275      -272.2029
  13   2.0000     -10.003268      -272.2028
  14   2.0000     -10.002751      -272.1887
  15   2.0000     -10.002746      -272.1886
  16   2.0000     -10.002644      -272.1858
  17   2.0000     -10.002637      -272.1856
  18   2.0000     -10.002502      -272.1819
  19   2.0000     -10.002483      -272.1814
  20   2.0000     -10.002264      -272.1754
  21   2.0000     -10.002263      -272.1754
  22   2.0000     -10.002105      -272.1711
  23   2.0000     -10.002090      -272.1707
  24   2.0000      -0.817114       -22.2348
  25   2.0000      -0.809325       -22.0228
  26   2.0000      -0.797656       -21.7053
  27   2.0000      -0.785812       -21.3830
  28   2.0000      -0.737625       -20.0718
  29   2.0000      -0.712423       -19.3860
  30   2.0000      -0.701970       -19.1016
  31   2.0000      -0.697959       -18.9924
  32   2.0000      -0.693065       -18.8592
  33   2.0000      -0.689315       -18.7572
  34   2.0000      -0.681618       -18.5478
  35   2.0000      -0.650707       -17.7066
  36   2.0000      -0.584944       -15.9171
  37   2.0000      -0.578354       -15.7378
  38   2.0000      -0.564987       -15.3741
  39   2.0000      -0.557618       -15.1736
  40   2.0000      -0.547660       -14.9026
  41   2.0000      -0.533542       -14.5184
  42   2.0000      -0.532348       -14.4859
  43   2.0000      -0.519614       -14.1394
  44   2.0000      -0.486903       -13.2493
  45   2.0000      -0.476227       -12.9588
  46   2.0000      -0.454691       -12.3728
  47   2.0000      -0.433993       -11.8095
  48   2.0000      -0.431759       -11.7488
  49   2.0000      -0.416877       -11.3438
  50   2.0000      -0.400614       -10.9013
  51   2.0000      -0.400234       -10.8909
  52   2.0000      -0.399397       -10.8682
  53   2.0000      -0.391396       -10.6504
  54   2.0000      -0.381707       -10.3868
  55   2.0000      -0.380386       -10.3508
  56   2.0000      -0.375882       -10.2283
  57   2.0000      -0.370493       -10.0816
  58   2.0000      -0.369383       -10.0514
  59   2.0000      -0.364204        -9.9105
  60   2.0000      -0.364157        -9.9092
  61   2.0000      -0.334419        -9.1000
  62   2.0000      -0.322519        -8.7762
  63   2.0000      -0.319738        -8.7005
  64   2.0000      -0.308822        -8.4035
  65   2.0000      -0.307756        -8.3745
  66   2.0000      -0.305513        -8.3134
  67   2.0000      -0.296622        -8.0715
  68   2.0000      -0.292241        -7.9523
  69   2.0000      -0.286546        -7.7973
  70   2.0000      -0.284154        -7.7322
  71   2.0000      -0.277674        -7.5559
  72   2.0000      -0.277104        -7.5404
  73   2.0000      -0.230361        -6.2684
  74   2.0000      -0.203794        -5.5455
  75   2.0000      -0.192155        -5.2288
  76   2.0000      -0.191370        -5.2075
  77   2.0000      -0.190510        -5.1840
  78   2.0000      -0.190337        -5.1793
  79   2.0000      -0.172244        -4.6870
  80   2.0000      -0.144694        -3.9373
  81   0.0000       0.036963         1.0058
  82   0.0000       0.069647         1.8952
  83   0.0000       0.090766         2.4699
  84   0.0000       0.091542         2.4910
  85   0.0000       0.092777         2.5246

MULLIKEN ATOMIC CHARGES
-----------------------
   0 C :   -0.003694
   1 C :   -0.003705
   2 C :   -0.078113
   3 C :   -0.078431
   4 C :   -0.003420
   5 C :   -0.003683
   6 C :   -0.077752
   7 C :   -0.078842
   8 C :   -0.078707
   9 C :   -0.079078
  10 C :   -0.077543
  11 C :   -0.078268
  12 C :   -0.078253
  13 C :   -0.078302
  14 C :   -0.078275
  15 C :   -0.003413
  16 C :   -0.003691
  17 C :   -0.077526
  18 C :   -0.079051
  19 C :   -0.078724
  20 C :   -0.078839
  21 C :   -0.077740
  22 C :   -0.078453
  23 C :   -0.078095
  24 H :    0.079597
  25 H :    0.079727
  26 H :    0.079237
  27 H :    0.079438
  28 H :    0.079482
  29 H :    0.079176
  30 H :    0.079694
  31 H :    0.079625
  32 H :    0.079640
  33 H :    0.079689
  34 H :    0.079175
  35 H :    0.079467
  36 H :    0.079443
  37 H :    0.079234
  38 H :    0.079734
  39 H :    0.079587
  40 H :    0.079828
  41 H :    0.079824
Sum of atomic charges:   -0.0000000

LOEWDIN ATOMIC CHARGES
----------------------
   0 C :    0.002666
   1 C :    0.002659
   2 C :   -0.045574
   3 C :   -0.045872
   4 C :    0.002994
   5 C :    0.002700
   6 C :   -0.045182
   7 C :   -0.042828
   8 C :   -0.042565
   9 C :   -0.043012
  10 C :   -0.045014
  11 C :   -0.045725
  12 C :   -0.045691
  13 C :   -0.045735
  14 C :   -0.045739
  15 C :    0.002997
  16 C :    0.002696
  17 C :   -0.044997
  18 C :   -0.042990
  19 C :   -0.042578
  20 C :   -0.042824
  21 C :   -0.045178
  22 C :   -0.045882
  23 C :   -0.045556
  24 H :    0.043889
  25 H :    0.043994
  26 H :    0.043558
  27 H :    0.043323
  28 H :    0.043352
  29 H :    0.043505
  30 H :    0.043964
  31 H :    0.043914
  32 H :    0.043928
  33 H :    0.043961
  34 H :    0.043503
  35 H :    0.043340
  36 H :    0.043327
  37 H :    0.043556
  38 H :    0.044000
  39 H :    0.043879
  40 H :    0.043622
  41 H :    0.043618

  Mayer bond orders larger than 0.100000
B(  0-C ,  1-C ) :   1.0367 B(  0-C , 13-C ) :   1.3744 B(  0-C , 15-C ) :   0.1026
B(  0-C , 23-C ) :   1.3739 B(  1-C ,  2-C ) :   1.3744 B(  1-C ,  4-C ) :   0.1026
B(  1-C , 12-C ) :   1.3739 B(  2-C ,  3-C ) :   1.4562 B(  2-C , 11-C ) :   0.1035
B(  2-C , 24-H ) :   0.9600 B(  3-C ,  4-C ) :   1.3756 B(  3-C , 12-C ) :   0.1035
B(  3-C , 25-H ) :   0.9600 B(  4-C ,  5-C ) :   1.0335 B(  4-C , 11-C ) :   1.3751
B(  5-C ,  6-C ) :   1.3823 B(  5-C ,  8-C ) :   0.1092 B(  5-C , 10-C ) :   1.3827
B(  6-C ,  7-C ) :   1.4431 B(  6-C ,  9-C ) :   0.1101 B(  6-C , 26-H ) :   0.9603
B(  7-C ,  8-C ) :   1.4234 B(  7-C , 10-C ) :   0.1102 B(  7-C , 27-H ) :   0.9631
B(  8-C ,  9-C ) :   1.4239 B(  8-C , 40-H ) :   0.9634 B(  9-C , 10-C ) :   1.4427
B(  9-C , 28-H ) :   0.9631 B( 10-C , 29-H ) :   0.9604 B( 11-C , 12-C ) :   1.4567
B( 11-C , 30-H ) :   0.9600 B( 12-C , 31-H ) :   0.9600 B( 13-C , 14-C ) :   1.4562
B( 13-C , 22-C ) :   0.1035 B( 13-C , 32-H ) :   0.9600 B( 14-C , 15-C ) :   1.3756
B( 14-C , 23-C ) :   0.1035 B( 14-C , 33-H ) :   0.9600 B( 15-C , 16-C ) :   1.0335
B( 15-C , 22-C ) :   1.3751 B( 16-C , 17-C ) :   1.3823 B( 16-C , 19-C ) :   0.1092
B( 16-C , 21-C ) :   1.3825 B( 17-C , 18-C ) :   1.4430 B( 17-C , 20-C ) :   0.1102
B( 17-C , 34-H ) :   0.9604 B( 18-C , 19-C ) :   1.4236 B( 18-C , 21-C ) :   0.1101
B( 18-C , 35-H ) :   0.9631 B( 19-C , 20-C ) :   1.4237 B( 19-C , 41-H ) :   0.9634
B( 20-C , 21-C ) :   1.4429 B( 20-C , 36-H ) :   0.9631 B( 21-C , 37-H ) :   0.9603
B( 22-C , 23-C ) :   1.4567 B( 22-C , 38-H ) :   0.9600 B( 23-C , 39-H ) :   0.9600

FINAL SINGLE POINT ENERGY      -913.505138673795

DIPOLE MOMENT
-------------
                                X             Y             Z
Electronic contribution:      0.00815      -0.00367       0.00126
Nuclear contribution   :     -0.00865       0.00396      -0.00153
                        -----------------------------------------
Total Dipole Moment    :     -0.00050       0.00029      -0.00027
                        -----------------------------------------
Magnitude (a.u.)       :      0.00064
Magnitude (Debye)      :      0.00163

Rotational constants in cm-1:     0.046729     0.002157     0.002075
Rotational constants in MHz :  1400.899269    64.652106    62.204214

                             ****ORCA TERMINATED NORMALLY****
TOTAL RUN TIME: 0 days 0 hours 17 minutes 33 seconds 26 msec
