 Gaussian 09, Revision E.01,
 Gaussian 09:  EM64L-G09RevE.01 30-Nov-2015

 ---------------------
 #n B3LYP/6-31G(d) opt
 ---------------------

 ---------------------
 geometry optimization
 ---------------------
 Symbolic Z-matrix:
 Charge =  0 Multiplicity = 1

 SCF Done:  E(RB3LYP) =  -925.293076131     A.U. after   15 cycles
 SCF Done:  E(RB3LYP) =  -925.326299740     A.U. after   15 cycles
 SCF Done:  E(RB3LYP) =  -925.374455920     A.U. after   15 cycles
 SCF Done:  E(RB3LYP) =  -925.401880785     A.U. after   15 cycles
 SCF Done:  E(RB3LYP) =  -925.414913396     A.U. after   14 cycles
 SCF Done:  E(RB3LYP) =  -925.419421232     A.U. after   14 cycles
 SCF Done:  E(RB3LYP) =  -925.420986104     A.U. after   13 cycles
 SCF Done:  E(RB3LYP) =  -925.421405654     A.U. after   12 cycles
 SCF Done:  E(RB3LYP) =  -925.421512942     A.U. after   11 cycles
 SCF Done:  E(RB3LYP) =  -925.421522104     A.U. after   10 cycles
 SCF Done:  E(RB3LYP) =  -925.421522472     A.U. after    8 cycles
 SCF Done:  E(RB3LYP) =  -925.421522501     A.U. after    6 cycles
 Optimization completed.
    -- Stationary point found.

                         Standard orientation:
 ---------------------------------------------------------------------
 Center     Atomic      Atomic             Coordinates (Angstroms)
 Number     Number       Type             X           Y           Z
 ---------------------------------------------------------------------
      1          6           0        5.075007    0.000005    0.000012
      2          6           0        3.590885    0.000061   -0.000058
      3          6           0        2.861812   -1.142215   -0.371412
      4          6           0        1.470646   -1.142232   -0.371651
      5          6           0        0.741295    0.000097   -0.000106
      6          6           0       -0.741284    0.000070   -0.000074
      7          6           0       -1.470624   -1.142295    0.371359
      8          6           0       -2.861793   -1.142288    0.371173
      9          6           0       -3.590895    0.000013   -0.000025
     10          6           0       -2.861850    1.142335   -0.371275
     11          6           0       -1.470681    1.142399   -0.371518
     12          6           0        1.470659    1.142383    0.371504
     13          6           0        2.861831    1.142334    0.371304
     14          6           0        5.798263    1.138081   -0.396622
     15          6           0        7.192210    1.138618   -0.396039
     16          6           0        7.896091   -0.000120    0.000126
     17          6           0       -7.896101   -0.000084    0.000118
     18          6           0       -7.192161    1.138687    0.396068
     19          6           0       -5.798210    1.138121    0.396548
     20          6           0       -5.074998   -0.000010    0.000027
     21          6           0       -5.798178   -1.138175   -0.396484
     22          6           0       -7.192125   -1.138812   -0.395909
     23          6           0        7.192077   -1.138792    0.396220
     24          6           0        5.798125   -1.138131    0.396683
     25          1           0        3.392800   -2.031627   -0.699179
     26          1           0        0.940100   -2.031632   -0.700110
     27          1           0       -0.940094   -2.031755    0.699683
     28          1           0       -3.392731   -2.031761    0.698857
     29          1           0       -3.392841    2.031774   -0.698968
     30          1           0       -0.940187    2.031854   -0.699910
     31          1           0        0.940146    2.031788    0.699999
     32          1           0        3.392809    2.031729    0.699132
     33          1           0        5.261360    2.020547   -0.733457
     34          1           0        7.729505    2.028129   -0.714698
     35          1           0       -7.729391    2.028270    0.714633
     36          1           0       -5.261291    2.020655    0.733188
     37          1           0       -5.261228   -2.020653   -0.733215
     38          1           0       -7.729334   -2.028414   -0.714454
     39          1           0        7.729254   -2.028358    0.714919
     40          1           0        5.261123   -2.020568    0.733442
     41          1           0        8.982734   -0.000164    0.000171
     42          1           0       -8.982744   -0.000116    0.000161
 ---------------------------------------------------------------------

 The electronic state is 1-A.
 Alpha  occ. eigenvalues --  -10.19897 -10.19870 -10.19870 -10.19868 -10.19840
 Alpha  occ. eigenvalues --  -10.19840 -10.19004 -10.19004 -10.18997 -10.18997
 Alpha  occ. eigenvalues --  -10.18995 -10.18995 -10.18986 -10.18986 -10.18938
 Alpha  occ. eigenvalues --  -10.18938 -10.18938 -10.18938 -10.18909 -10.18908
 Alpha  occ. eigenvalues --  -10.18869 -10.18869 -10.18866 -10.18866  -0.87169
 Alpha  occ. eigenvalues --   -0.86322  -0.85068  -0.83836  -0.79155  -0.76477
 Alpha  occ. eigenvalues --   -0.75049  -0.74637  -0.74161  -0.73825  -0.73274
 Alpha  occ. eigenvalues --   -0.70128  -0.63617  -0.62523  -0.61184  -0.60625
 Alpha  occ. eigenvalues --   -0.59531  -0.58140  -0.58059  -0.56656  -0.53358
 Alpha  occ. eigenvalues --   -0.52347  -0.50338  -0.47708  -0.47556  -0.47080
 Alpha  occ. eigenvalues --   -0.45332  -0.44583  -0.44395  -0.43679  -0.43602
 Alpha  occ. eigenvalues --   -0.42765  -0.42494  -0.42121  -0.41660  -0.41651
 Alpha  occ. eigenvalues --   -0.41309  -0.38548  -0.37459  -0.37306  -0.36272
 Alpha  occ. eigenvalues --   -0.35781  -0.35562  -0.34862  -0.34514  -0.33982
 Alpha  occ. eigenvalues --   -0.33473  -0.33245  -0.32850  -0.28831  -0.26252
 Alpha  occ. eigenvalues --   -0.25163  -0.25072  -0.24947  -0.24935  -0.23295
 Alpha  occ. eigenvalues --   -0.20726
 Alpha virt. eigenvalues --   -0.04417  -0.01454  -0.00577  -0.00238   0.00044
 Alpha virt. eigenvalues --    0.00206   0.02010   0.05090   0.09691   0.09723
 Alpha virt. eigenvalues --    0.10656   0.11247   0.12112   0.12623   0.14155

 Mulliken charges:
               1
     1  C    0.089213
     2  C    0.094589
     3  C   -0.181572
     4  C   -0.181541
     5  C    0.095792
     6  C    0.095791
     7  C   -0.181542
     8  C   -0.181576
     9  C    0.094604
    10  C   -0.181575
    11  C   -0.181544
    12  C   -0.181539
    13  C   -0.181569
    14  C   -0.173681
    15  C   -0.133620
    16  C   -0.126759
    17  C   -0.126759
    18  C   -0.133622
    19  C   -0.173687
    20  C    0.089229
    21  C   -0.173685
    22  C   -0.133622
    23  C   -0.133621
    24  C   -0.173681
    25  H    0.133515
    26  H    0.133128
    27  H    0.133126
    28  H    0.133513
    29  H    0.133512
    30  H    0.133127
    31  H    0.133128
    32  H    0.133514
    33  H    0.132046
    34  H    0.130461
    35  H    0.130460
    36  H    0.132044
    37  H    0.132045
    38  H    0.130460
    39  H    0.130461
    40  H    0.132046
    41  H    0.129695
    42  H    0.129696
 Sum of Mulliken charges =  -0.00000

 Dipole moment (field-independent basis, Debye):
    X=              0.0000    Y=             -0.0000    Z=              0.0000  Tot=              0.0000
 Quadrupole moment (field-independent basis, Debye-Ang):
   XX=           -119.1819   YY=           -123.8568   ZZ=           -144.6654
   XY=             -0.0000   XZ=              0.0002   YZ=             -0.0000

 Normal termination of Gaussian 09 at Thu Apr 18 14:02:08 2019.
