 Gaussian 09, Revision E.01,
 Gaussian 09:  EM64L-G09RevE.01 30-Nov-2015

 ---------------------
 #n B3LYP/6-31G(d) opt
 ---------------------

 ---------------------
 geometry optimization
 ---------------------
 Symbolic Z-matrix:
 Charge =  0 Multiplicity = 1

 SCF Done:  E(RB3LYP) =  -925.293823414     A.U. after   14 cycles
 SCF Done:  E(RB3LYP) =  -925.327320049     A.U. after   15 cycles
 SCF Done:  E(RB3LYP) =  -925.375953457     A.U. after   15 cycles
 SCF Done:  E(RB3LYP) =  -925.403964238     A.U. after   15 cycles
 SCF Done:  E(RB3LYP) =  -925.417231092     A.U. after   14 cycles
 SCF Done:  E(RB3LYP) =  -925.421143527     A.U. after   14 cycles
 SCF Done:  E(RB3LYP) =  -925.421493746     A.U. after   12 cycles
 SCF Done:  E(RB3LYP) =  -925.421519571     A.U. after   10 cycles
 SCF Done:  E(RB3LYP) =  -925.421522374     A.U. after    9 cycles
 SCF Done:  E(RB3LYP) =  -925.421522497     A.U. after    7 cycles
 Optimization completed.
    -- Stationary point found.

                         Standard orientation:
 ---------------------------------------------------------------------
 Center     Atomic      Atomic             Coordinates (Angstroms)
 Number     Number       Type             X           Y           Z
 ---------------------------------------------------------------------
      1          6           0       -0.741283    0.000026    0.000053
      2          6           0        0.741287    0.000079    0.000066
      3          6           0        1.470636    1.142407   -0.371448
      4          6           0        2.861805    1.142392   -0.371248
      5          6           0        3.590887    0.000104    0.000028
      6          6           0        5.074995    0.000054   -0.000059
      7          6           0        5.798266    1.138052    0.396756
      8          6           0        7.192215    1.138568    0.396187
      9          6           0        7.896086   -0.000124   -0.000101
     10          6           0        7.192058   -1.138758   -0.396287
     11          6           0        5.798112   -1.138078   -0.396756
     12          6           0        2.861834   -1.142210    0.371278
     13          6           0        1.470669   -1.142249    0.371535
     14          6           0       -1.470617   -1.142323   -0.371419
     15          6           0       -2.861788   -1.142326   -0.371215
     16          6           0       -3.590887   -0.000038    0.000021
     17          6           0       -5.074995   -0.000042   -0.000029
     18          6           0       -5.798203   -1.138095    0.396735
     19          6           0       -7.192153   -1.138690    0.396161
     20          6           0       -7.896090   -0.000026   -0.000090
     21          6           0       -7.192125    1.138648   -0.396272
     22          6           0       -5.798178    1.138045   -0.396741
     23          6           0       -2.861847    1.142285    0.371275
     24          6           0       -1.470682    1.142345    0.371524
     25          1           0        0.940124    2.031839   -0.699879
     26          1           0        3.392759    2.031829   -0.698999
     27          1           0        5.261381    2.020487    0.733705
     28          1           0        7.729474    2.028034    0.715026
     29          1           0        7.729190   -2.028329   -0.715045
     30          1           0        5.261093   -2.020506   -0.733518
     31          1           0        3.392838   -2.031647    0.698958
     32          1           0        0.940166   -2.031692    0.699949
     33          1           0       -0.940090   -2.031764   -0.699803
     34          1           0       -3.392725   -2.031789   -0.698926
     35          1           0       -5.261273   -2.020517    0.733645
     36          1           0       -7.729365   -2.028199    0.714958
     37          1           0       -7.729310    2.028187   -0.715032
     38          1           0       -5.261218    2.020500   -0.733524
     39          1           0       -3.392854    2.031709    0.698980
     40          1           0       -0.940191    2.031792    0.699944
     41          1           0        8.982729   -0.000205   -0.000074
     42          1           0       -8.982732   -0.000012   -0.000077
 ---------------------------------------------------------------------

 The electronic state is 1-A.
 Alpha  occ. eigenvalues --  -10.19897 -10.19870 -10.19870 -10.19868 -10.19840
 Alpha  occ. eigenvalues --  -10.19840 -10.19004 -10.19004 -10.18997 -10.18997
 Alpha  occ. eigenvalues --  -10.18995 -10.18995 -10.18986 -10.18986 -10.18938
 Alpha  occ. eigenvalues --  -10.18938 -10.18938 -10.18938 -10.18909 -10.18909
 Alpha  occ. eigenvalues --  -10.18869 -10.18869 -10.18866 -10.18866  -0.87169
 Alpha  occ. eigenvalues --   -0.86322  -0.85068  -0.83836  -0.79156  -0.76477
 Alpha  occ. eigenvalues --   -0.75049  -0.74636  -0.74161  -0.73825  -0.73274
 Alpha  occ. eigenvalues --   -0.70128  -0.63617  -0.62523  -0.61183  -0.60626
 Alpha  occ. eigenvalues --   -0.59531  -0.58140  -0.58059  -0.56656  -0.53358
 Alpha  occ. eigenvalues --   -0.52347  -0.50339  -0.47708  -0.47556  -0.47079
 Alpha  occ. eigenvalues --   -0.45332  -0.44583  -0.44395  -0.43679  -0.43602
 Alpha  occ. eigenvalues --   -0.42765  -0.42494  -0.42121  -0.41660  -0.41651
 Alpha  occ. eigenvalues --   -0.41309  -0.38548  -0.37459  -0.37306  -0.36273
 Alpha  occ. eigenvalues --   -0.35781  -0.35562  -0.34862  -0.34514  -0.33982
 Alpha  occ. eigenvalues --   -0.33473  -0.33245  -0.32850  -0.28831  -0.26252
 Alpha  occ. eigenvalues --   -0.25163  -0.25072  -0.24947  -0.24935  -0.23295
 Alpha  occ. eigenvalues --   -0.20726
 Alpha virt. eigenvalues --   -0.04416  -0.01454  -0.00577  -0.00238   0.00043
 Alpha virt. eigenvalues --    0.00206   0.02009   0.05090   0.09691   0.09723
 Alpha virt. eigenvalues --    0.10656   0.11247   0.12113   0.12623   0.14156

 Mulliken charges:
               1
     1  C    0.095797
     2  C    0.095797
     3  C   -0.181541
     4  C   -0.181569
     5  C    0.094589
     6  C    0.089216
     7  C   -0.173682
     8  C   -0.133617
     9  C   -0.126762
    10  C   -0.133622
    11  C   -0.173681
    12  C   -0.181567
    13  C   -0.181547
    14  C   -0.181542
    15  C   -0.181571
    16  C    0.094592
    17  C    0.089219
    18  C   -0.173683
    19  C   -0.133618
    20  C   -0.126762
    21  C   -0.133620
    22  C   -0.173682
    23  C   -0.181568
    24  C   -0.181546
    25  H    0.133126
    26  H    0.133513
    27  H    0.132045
    28  H    0.130461
    29  H    0.130461
    30  H    0.132044
    31  H    0.133514
    32  H    0.133127
    33  H    0.133126
    34  H    0.133513
    35  H    0.132045
    36  H    0.130460
    37  H    0.130461
    38  H    0.132044
    39  H    0.133514
    40  H    0.133126
    41  H    0.129696
    42  H    0.129696
 Sum of Mulliken charges =  -0.00000

 Dipole moment (field-independent basis, Debye):
    X=              0.0000    Y=             -0.0000    Z=              0.0002  Tot=              0.0002
 Quadrupole moment (field-independent basis, Debye-Ang):
   XX=           -119.1829   YY=           -123.8578   ZZ=           -144.6641
   XY=             -0.0007   XZ=              0.0004   YZ=              0.0000

 Normal termination of Gaussian 09 at Thu Apr 18 13:01:49 2019.
