 Gaussian 09, Revision E.01,
 Gaussian 09:  EM64L-G09RevE.01 30-Nov-2015

 ---------------------
 #n B3LYP/6-31G(d) opt
 ---------------------

 ---------------------
 geometry optimization
 ---------------------
 Symbolic Z-matrix:
 Charge =  0 Multiplicity = 1

 SCF Done:  E(RB3LYP) =  -925.293327509     A.U. after   14 cycles
 SCF Done:  E(RB3LYP) =  -925.326132217     A.U. after   15 cycles
 SCF Done:  E(RB3LYP) =  -925.373729567     A.U. after   15 cycles
 SCF Done:  E(RB3LYP) =  -925.400260950     A.U. after   15 cycles
 SCF Done:  E(RB3LYP) =  -925.413652258     A.U. after   14 cycles
 SCF Done:  E(RB3LYP) =  -925.418781042     A.U. after   14 cycles
 SCF Done:  E(RB3LYP) =  -925.420715738     A.U. after   14 cycles
 SCF Done:  E(RB3LYP) =  -925.421271561     A.U. after   13 cycles
 SCF Done:  E(RB3LYP) =  -925.421437921     A.U. after   11 cycles
 SCF Done:  E(RB3LYP) =  -925.421454804     A.U. after   11 cycles
 SCF Done:  E(RB3LYP) =  -925.421455200     A.U. after    8 cycles
 Optimization completed.
    -- Stationary point found.

                         Standard orientation:
 ---------------------------------------------------------------------
 Center     Atomic      Atomic             Coordinates (Angstroms)
 Number     Number       Type             X           Y           Z
 ---------------------------------------------------------------------
      1          6           0       -7.896002    0.000096   -0.000097
      2          6           0       -7.192002    1.205693   -0.000462
      3          6           0       -5.798055    1.205282   -0.001089
      4          6           0       -5.074785    0.000049    0.000156
      5          6           0       -3.590664    0.000040    0.000122
      6          6           0       -2.861541    0.957375    0.725385
      7          6           0       -1.470302    0.957554    0.725163
      8          6           0       -0.741263   -0.000184   -0.000107
      9          6           0       -1.470546   -0.957886   -0.725178
     10          6           0       -2.861744   -0.957516   -0.725124
     11          6           0       -5.798072   -1.205132    0.001270
     12          6           0       -7.192048   -1.205493    0.000384
     13          6           0        7.895844   -0.000028    0.000144
     14          6           0        7.191840   -0.957465    0.732764
     15          6           0        5.797837   -0.956844    0.732820
     16          6           0        5.074890    0.000125   -0.000050
     17          6           0        3.590648    0.000044   -0.000148
     18          6           0        2.861836   -1.201071   -0.008273
     19          6           0        1.470608   -1.201249   -0.008010
     20          6           0        0.741409   -0.000108   -0.000205
     21          6           0        1.470460    1.201113    0.007733
     22          6           0        2.861683    1.201085    0.008030
     23          6           0        5.798024    0.957049   -0.732783
     24          6           0        7.192005    0.957509   -0.732546
     25          1           0       -7.729229    2.150554   -0.009658
     26          1           0       -5.261171    2.149446   -0.029566
     27          1           0       -3.392360    1.689968    1.326976
     28          1           0       -0.939515    1.690190    1.326730
     29          1           0       -0.939965   -1.690719   -1.326693
     30          1           0       -3.392825   -1.690163   -1.326424
     31          1           0       -5.261253   -2.149334    0.029811
     32          1           0       -7.729268   -2.150360    0.009452
     33          1           0        7.728986   -1.702537    1.313969
     34          1           0        5.260737   -1.689528    1.328730
     35          1           0        3.393199   -2.148488   -0.032294
     36          1           0        0.939702   -2.149138    0.003934
     37          1           0        0.939418    2.148929   -0.004109
     38          1           0        3.392918    2.148564    0.032175
     39          1           0        5.261088    1.689816   -1.328743
     40          1           0        7.729333    1.702511   -1.313674
     41          1           0       -8.982641    0.000123   -0.000207
     42          1           0        8.982486   -0.000056    0.000189
 ---------------------------------------------------------------------

 The electronic state is 1-A.
 Alpha  occ. eigenvalues --  -10.19898 -10.19872 -10.19869 -10.19863 -10.19842
 Alpha  occ. eigenvalues --  -10.19834 -10.19001 -10.19000 -10.18999 -10.18998
 Alpha  occ. eigenvalues --  -10.18992 -10.18990 -10.18982 -10.18981 -10.18943
 Alpha  occ. eigenvalues --  -10.18942 -10.18934 -10.18933 -10.18904 -10.18900
 Alpha  occ. eigenvalues --  -10.18865 -10.18864 -10.18862 -10.18861  -0.87168
 Alpha  occ. eigenvalues --   -0.86320  -0.85065  -0.83834  -0.79154  -0.76474
 Alpha  occ. eigenvalues --   -0.75043  -0.74632  -0.74156  -0.73825  -0.73272
 Alpha  occ. eigenvalues --   -0.70128  -0.63613  -0.62513  -0.61178  -0.60621
 Alpha  occ. eigenvalues --   -0.59526  -0.58158  -0.58053  -0.56655  -0.53353
 Alpha  occ. eigenvalues --   -0.52344  -0.50338  -0.47706  -0.47547  -0.47065
 Alpha  occ. eigenvalues --   -0.45375  -0.44579  -0.44389  -0.43723  -0.43612
 Alpha  occ. eigenvalues --   -0.42646  -0.42488  -0.42126  -0.41660  -0.41647
 Alpha  occ. eigenvalues --   -0.41242  -0.38543  -0.37937  -0.37080  -0.36143
 Alpha  occ. eigenvalues --   -0.35779  -0.35510  -0.34959  -0.34428  -0.33983
 Alpha  occ. eigenvalues --   -0.33580  -0.33236  -0.32764  -0.28743  -0.26284
 Alpha  occ. eigenvalues --   -0.25149  -0.25072  -0.24939  -0.24936  -0.23347
 Alpha  occ. eigenvalues --   -0.20702
 Alpha virt. eigenvalues --   -0.04367  -0.01416  -0.00566  -0.00240   0.00065
 Alpha virt. eigenvalues --    0.00197   0.01979   0.04983   0.09685   0.09716
 Alpha virt. eigenvalues --    0.10642   0.11276   0.12036   0.12853   0.13534

 Mulliken charges:
               1
     1  C   -0.126763
     2  C   -0.133617
     3  C   -0.173726
     4  C    0.089310
     5  C    0.094572
     6  C   -0.181673
     7  C   -0.181391
     8  C    0.094894
     9  C   -0.181381
    10  C   -0.181660
    11  C   -0.173740
    12  C   -0.133619
    13  C   -0.126760
    14  C   -0.133700
    15  C   -0.173586
    16  C    0.088413
    17  C    0.093168
    18  C   -0.180720
    19  C   -0.180614
    20  C    0.094238
    21  C   -0.180606
    22  C   -0.180729
    23  C   -0.173575
    24  C   -0.133702
    25  H    0.130434
    26  H    0.132000
    27  H    0.133571
    28  H    0.133594
    29  H    0.133587
    30  H    0.133569
    31  H    0.132002
    32  H    0.130432
    33  H    0.130494
    34  H    0.132486
    35  H    0.133320
    36  H    0.132931
    37  H    0.132935
    38  H    0.133316
    39  H    0.132482
    40  H    0.130494
    41  H    0.129679
    42  H    0.129640
 Sum of Mulliken charges =  -0.00000

 Dipole moment (field-independent basis, Debye):
    X=              0.0044    Y=             -0.0001    Z=              0.0002  Tot=              0.0044
 Quadrupole moment (field-independent basis, Debye-Ang):
   XX=           -119.2853   YY=           -125.9792   ZZ=           -142.5234
   XY=              0.0004   XZ=              0.0012   YZ=             -0.1967

 Normal termination of Gaussian 09 at Thu Apr 18 12:10:39 2019.
